version 3
run General-0-20221211-14:46:22-7830
attr configname General
attr datetime 20221211-14:46:22
attr datetimef 20221211-144622
attr experiment General
attr inifile omnetpp.ini
attr iterationvars ""
attr iterationvarsd ""
attr iterationvarsf ""
attr measurement ""
attr network AerocomSys
attr processid 7830
attr repetition 0
attr replication #0
attr resultdir results
attr runnumber 0
attr seedset 0
config network AerocomSys
config repeat 100
config num-rngs 3
config **.size 100
config **.minCapacity 6000
config **.maxCapacity 15000
config sim-time-limit 400s
config rng-class omnetpp::cMersenneTwister
config **.nDL 5
config **.nAC 1
config **.PacketGenerator.rng-0 0
config **.LinkSelector.rng-1 1
config **.DataLink[*].rng-0 0

vector 0 AerocomSys.airCraft[0].linkSelector waitingTimeStatistic:vector ETV
attr recordingmode vector
attr source waitingTime
attr title "waiting time statistic"
vector 1 AerocomSys.airCraft[0].linkSelector serviceTimeStatistic:vector ETV
attr recordingmode vector
attr source serviceTime
attr title "service time statistic"
vector 2 AerocomSys.controlTower responseTimeStatistic:vector ETV
attr recordingmode vector
attr source responseTime
attr title "response time statistic"
0	23	5	4.451186497696
0	23	5	3.858341881307
0	23	5	3.143152516335
0	23	5	2.298886772245
0	23	5	1.696123401867
0	23	5	0.838177782018
0	23	5	0.293294604635
0	40	5.553957132622	0
0	44	5.97761192941	0
0	49	6.601175625807	0
0	54	7.247069740899	0
0	59	7.631451449122	0
0	64	8.069038659099	0
0	68	8.366573264354	0
0	73	9.258346266111	0
0	77	9.315059241837	0
0	111	15	4.721277994105
0	111	15	4.448621699588
0	111	15	4.065180178268
0	111	15	3.587515066613
0	111	15	2.795790033184
0	111	15	1.983621306719
0	111	15	1.454726385187
0	111	15	0.974749213785
0	111	15	0.40670465003
0	111	15	0.013919856867
0	134	15.911676776361	0
0	138	16.74775554519	0
0	142	16.818791603901	0
0	146	17.156187765532	0
0	150	17.2433170625	0
0	155	17.891488939057	0
0	159	17.911707338177	0
1	23	5	0.008052441557151
1	23	5	0.008052441557151
1	23	5	0.008052441557151
1	23	5	0.008052441557151
1	23	5	0.008052441557151
1	23	5	0.008052441557151
1	23	5	0.008052441557151
1	40	5.553957132622	0.0080601305323045
1	44	5.97761192941	0.0082407436596495
1	49	6.601175625807	0.0085218092907978
1	54	7.247069740899	0.0088338951441924
1	59	7.631451449122	0.009030713556468
1	64	8.069038659099	0.0092657282134462
1	68	8.366573264354	0.0094326368699887
1	73	9.258346266111	0.0099709731993956
1	77	9.315059241837	0.010007294833883
1	111	15	0.0087627607826795
1	111	15	0.0087627607826795
1	111	15	0.0087627607826795
1	111	15	0.0087627607826795
1	111	15	0.0087627607826795
1	111	15	0.0087627607826795
1	111	15	0.0087627607826795
1	111	15	0.0087627607826795
1	111	15	0.0087627607826795
1	111	15	0.0087627607826795
1	134	15.911676776361	0.008756359904693
1	138	16.74775554519	0.0087504980146631
1	142	16.818791603901	0.0087500003305303
1	146	17.156187765532	0.0087476372796599
1	150	17.2433170625	0.0087470272519633
1	155	17.891488939057	0.0087424918060277
1	159	17.911707338177	0.0087423504076892
2	31	5	4.4592389392532
2	32	5	3.8663943228642
2	33	5	3.1512049578922
2	34	5	2.3069392138022
2	35	5	1.7041758434242
2	36	5	0.84623022357515
2	37	5	0.30134704619215
2	42	5.553957132622	0.0080601305323045
2	46	5.97761192941	0.0082407436596495
2	51	6.601175625807	0.0085218092907978
2	56	7.247069740899	0.0088338951441924
2	61	7.631451449122	0.009030713556468
2	66	8.069038659099	0.0092657282134462
2	70	8.366573264354	0.0094326368699887
2	75	9.258346266111	0.0099709731993956
2	79	9.315059241837	0.010007294833883
2	122	15	4.7300407548877
2	123	15	4.4573844603707
2	124	15	4.0739429390507
2	125	15	3.5962778273957
2	126	15	2.8045527939667
2	127	15	1.9923840675017
2	128	15	1.4634891459697
2	129	15	0.98351197456768
2	130	15	0.41546741081268
2	131	15	0.022682617649679
2	136	15.911676776361	0.008756359904693
2	140	16.74775554519	0.0087504980146631
2	144	16.818791603901	0.0087500003305303
2	148	17.156187765532	0.0087476372796599
2	152	17.2433170625	0.0087470272519633
2	157	17.891488939057	0.0087424918060277

