version 3
run monitoring-exponential-5-20230106-17:25:37-1862
attr configname monitoring-exponential
attr datetime 20230106-17:25:37
attr datetimef 20230106-172537
attr experiment monitoring-exponential
attr inifile omnetpp.ini
attr iterationvars ""
attr iterationvarsd ""
attr iterationvarsf ""
attr measurement ""
attr network AerocomSys
attr processid 1862
attr repetition 5
attr replication #5
attr resultdir results
attr runnumber 5
attr seedset 5
config description "aircraft in monitoring mode, new capacity selected with exponential distrbution"
config **.X 0.1
config **.exponentialMean 1
config **.generationMode 1
config **.operationMode 0
config network AerocomSys
config repeat 10
config seed-set 5
config num-rngs 3
config **.size 100
config **.minCapacity 6000
config **.maxCapacity 15000
config sim-time-limit 300s
config warmup-period 10s
config rng-class omnetpp::cMersenneTwister
config **.nDL 15
config **.nAC 1
config **.kMean 0.05+5*0.001
config **.PacketGenerator.rng-0 0
config **.LinkSelector.rng-1 1
config **.DataLink[*].rng-2 2

vector 0 AerocomSys.airCraft[0].linkSelector queueLengthStatistic:vector ETV
attr recordingmode vector
attr source queueLength
attr title "queue length statistic"
vector 1 AerocomSys.airCraft[0].linkSelector serviceTimeStatistic:vector ETV
attr recordingmode vector
attr source serviceTime
attr title "service time statistic"
vector 2 AerocomSys.airCraft[0].linkSelector waitingTimeStatistic:vector ETV
attr recordingmode vector
attr source waitingTime
attr title "waiting time statistic"
vector 3 AerocomSys.controlTower responseTimeStatistic:vector ETV
attr recordingmode vector
attr source responseTime
attr title "response time statistic"
0	1123	10.100733549114	1
0	1124	10.108552171845	0
0	1128	10.236923516605	1
0	1130	10.244745383063	0
0	1134	10.261752839545	1
0	1135	10.269544177373	0
0	1139	10.301546843927	1
0	1141	10.302378325908	2
0	1142	10.309289747399	1
0	1145	10.317023296674	0
0	1151	10.384625157745	1
0	1153	10.392268860387	0
0	1158	10.51111761755	1
0	1159	10.518615068117	0
0	1163	10.565791607328	1
0	1165	10.573227561299	0
0	1172	10.618346961123	1
0	1173	10.626212164236	0
0	1177	10.631624543247	1
0	1178	10.639720570859	0
0	1185	10.826240059713	1
0	1187	10.834550634458	0
0	1191	10.857014859523	1
0	1192	10.865279702914	0
0	1196	10.910467004491	1
0	1198	10.918636645667	0
0	1204	11.048429171385	1
0	1205	11.056498114083	0
0	1211	11.199843155217	1
0	1212	11.208432019829	0
0	1217	11.264570324631	1
0	1218	11.27320930856	0
0	1224	11.314834427361	1
0	1225	11.322968078105	0
0	1231	11.376956264523	1
0	1233	11.385205414026	2
0	1234	11.385264077175	1
0	1237	11.393595748274	0
0	1243	11.456994284225	1
0	1244	11.465537794969	0
0	1248	11.519384532488	1
0	1250	11.52431614396	2
0	1251	11.527856766881	1
0	1254	11.536309687465	0
0	1258	11.567788427636	1
0	1259	11.576151490636	0
0	1263	11.625644035442	1
0	1265	11.626143739865	2
0	1266	11.633880244663	1
0	1269	11.642098707472	0
0	1275	11.677798230544	1
0	1276	11.685923340528	0
0	1282	11.759783113656	1
0	1283	11.767867687444	0
0	1287	11.781326025122	1
0	1289	11.788445964213	2
0	1290	11.789406020635	1
0	1293	11.797484300333	0
0	1297	11.798567510268	1
0	1298	11.806643845374	0
0	1302	11.838638034497	1
0	1303	11.846705875335	0
0	1308	11.857991462869	1
0	1309	11.866055207506	0
0	1314	11.91826448285	1
0	1316	11.918324610135	2
0	1317	11.926315497158	1
0	1320	11.934364814046	0
0	1325	11.99748761989	1
0	1326	12.005521962407	0
0	1330	12.013212265345	1
0	1331	12.021243306962	0
0	1337	12.168761449832	1
0	1339	12.176759984268	0
0	1344	12.232745104019	1
0	1346	12.240025728663	2
0	1347	12.2407303432	1
0	1350	12.248713926218	0
0	1355	12.252064465349	1
0	1356	12.260045698816	0
0	1360	12.265028896599	1
0	1361	12.273007444247	0
0	1365	12.36927578459	1
0	1366	12.377232801125	0
0	1370	12.3942848072	1
0	1371	12.402236675653	0
0	1375	12.501115006753	1
0	1376	12.509044959116	0
0	1380	12.529328655335	1
0	1381	12.537252839851	0
0	1388	12.596862066294	1
0	1390	12.604801716604	0
0	1394	12.645900695668	1
0	1395	12.653901380199	0
0	1399	12.688307462606	1
0	1400	12.696236318281	0
0	1408	12.968910875109	1
0	1410	12.970281062747	2
0	1411	12.976490630181	1
0	1414	12.984082749758	0
0	1418	13.022282734662	1
0	1419	13.029950419337	0
0	1423	13.081528491974	1
0	1424	13.089296203815	0
0	1429	13.144719139028	1
0	1430	13.152562939765	0
0	1434	13.267734136766	1
0	1436	13.273297919263	2
0	1437	13.275285249111	1
0	1440	13.282819105099	0
0	1445	13.287251666883	1
0	1446	13.29475833728	0
0	1451	13.318557639084	1
0	1452	13.326311190553	0
0	1456	13.37781339836	1
0	1458	13.385419651902	2
0	1459	13.386123233941	1
0	1462	13.39444936742	0
0	1466	13.440781206279	1
0	1468	13.449216153213	0
0	1472	13.454123410861	1
0	1473	13.462585352796	0
0	1478	13.543656432137	1
0	1479	13.552304092617	0
0	1485	13.648022215839	1
0	1486	13.656540536195	0
0	1491	13.936381857724	1
0	1492	13.944557244904	0
0	1496	13.961792869403	1
0	1498	13.963563826123	2
0	1499	13.969939355552	1
0	1503	13.977811356254	2
0	1504	13.97807661956	1
0	1507	13.986204692687	0
0	1511	14.013799952736	1
0	1512	14.021887921487	0
0	1517	14.121909706126	1
0	1518	14.129971370918	0
0	1522	14.186515830854	1
0	1523	14.194825114361	0
0	1529	14.220994937384	1
0	1530	14.229228152912	0
0	1535	14.245776825214	1
0	1536	14.254072525245	0
0	1541	14.308123014485	1
0	1542	14.317660425051	0
0	1546	14.318865810609	1
0	1547	14.328391829224	0
0	1551	14.344969680587	1
0	1554	14.351331911475	2
0	1555	14.35446813103	1
0	1558	14.363956589757	0
0	1564	14.420648896059	1
0	1566	14.423675331103	2
0	1567	14.430433782716	1
0	1570	14.44023669736	0
0	1574	14.448654210136	1
0	1575	14.458490872307	0
0	1579	14.491339147481	1
0	1580	14.501255787063	0
0	1586	14.535443392271	1
0	1587	14.545348911156	0
0	1591	14.591880267956	1
0	1592	14.601717672778	0
0	1596	14.640419887441	1
0	1597	14.650104913935	0
0	1603	14.806324346651	1
0	1605	14.813067706742	2
0	1607	14.813100061587	3
0	1608	14.815015116165	2
0	1612	14.822659108684	3
0	1613	14.823713321514	2
0	1616	14.832418981812	1
0	1619	14.841132116255	0
0	1625	15.010573468039	1
0	1626	15.019442423965	0
0	1631	15.085825115006	1
0	1632	15.094761576211	0
0	1636	15.103576018883	1
0	1637	15.112528553783	0
0	1641	15.138737868579	1
0	1643	15.140157204729	2
0	1644	15.147722414352	1
0	1647	15.156715176287	0
0	1651	15.194871252886	1
0	1652	15.203907378891	0
0	1656	15.207251723743	1
0	1657	15.216274180474	0
0	1662	15.299177961572	1
0	1663	15.307840886561	0
0	1667	15.351683478366	1
0	1669	15.355438880397	2
0	1671	15.360153620425	1
0	1674	15.368593463772	0
0	1679	15.424231310654	1
0	1680	15.432448778151	0
0	1684	15.443842061987	1
0	1685	15.451993795405	0
0	1692	15.679593117721	1
0	1693	15.687266437385	0
0	1699	15.733331152961	1
0	1700	15.740928671834	0
0	1704	15.767042062829	1
0	1706	15.774699955425	0
0	1710	15.804420845757	1
0	1711	15.812146812734	0
0	1717	15.875742903059	1
0	1718	15.883602177851	0
0	1722	15.961374551212	1
0	1723	15.969400085772	0
0	1729	16.097674305545	1
0	1730	16.10597949006	0
0	1736	16.198051889901	1
0	1737	16.206279215567	0
0	1741	16.222111669752	1
0	1742	16.230318873859	0
0	1748	16.300896420778	1
0	1749	16.309083081367	0
0	1753	16.311951561194	1
0	1755	16.319075699868	2
0	1756	16.320138899959	1
0	1759	16.328326741048	0
0	1764	16.386421412856	1
0	1765	16.394259924714	0
0	1774	16.57881241646	1
0	1775	16.587016159922	0
0	1779	16.623026831972	1
0	1780	16.631233299771	0
0	1785	16.732680256821	1
0	1786	16.740893488892	0
0	1793	17.055763712339	1
0	1795	17.061515202998	2
0	1797	17.062911429148	3
0	1798	17.063996939687	2
0	1801	17.072230677853	1
0	1804	17.080464926931	0
0	1808	17.085986474839	1
0	1809	17.094221577621	0
0	1817	17.256170734867	1
0	1819	17.258194503212	2
0	1821	17.264416414183	1
0	1824	17.272662606638	0
0	1828	17.379955079804	1
0	1829	17.388208469096	0
0	1833	17.428570816625	1
0	1834	17.436827237919	0
0	1838	17.471224592777	1
0	1839	17.479483676081	0
0	1844	17.559029348512	1
0	1845	17.567187561596	0
0	1850	17.607330014992	1
0	1851	17.614978619005	0
0	1859	17.79862026776	1
0	1860	17.806184071296	0
0	1864	17.851268249696	1
0	1865	17.858876477855	0
0	1870	18.041454649055	1
0	1871	18.049227799097	0
0	1875	18.061657443249	1
0	1878	18.066185443565	2
0	1879	18.069448533395	1
0	1882	18.077246564183	0
0	1886	18.119175306828	1
0	1887	18.127017929394	0
0	1891	18.130409158562	1
0	1892	18.138261925636	0
0	1896	18.212484242749	1
0	1897	18.220411930003	0
0	1902	18.330743635973	1
0	1903	18.338781822258	0
0	1911	18.488655768598	1
0	1912	18.496668855753	0
0	1918	18.563708031729	1
0	1920	18.568517547382	2
0	1921	18.571426427268	1
0	1925	18.578568310306	2
0	1927	18.578781089727	3
0	1928	18.579181057866	2
0	1931	18.586972437878	1
0	1934	18.594801093931	0
0	1938	18.610524894786	1
0	1939	18.61846843263	0
0	1943	18.622816702231	1
0	1944	18.630785200823	0
0	1950	18.662350040937	1
0	1952	18.670305495071	0
0	1956	18.697297241926	1
0	1957	18.705241200361	0
0	1961	18.710778299249	1
0	1963	18.717418790993	2
0	1964	18.718717832036	1
0	1968	18.723314143042	2
0	1969	18.726654760688	1
0	1973	18.734589087767	0
0	1977	18.763235776926	1
0	1979	18.771158135459	0
0	1983	18.778982437814	1
0	1985	18.782764129348	2
0	1986	18.78690904463	1
0	1989	18.794840132672	0
0	1995	18.969740390844	1
0	1997	18.974557438937	2
0	1998	18.977776265559	1
0	2001	18.985778417616	0
0	2008	19.069438475122	1
0	2009	19.077177363671	0
0	2013	19.142190811164	1
0	2014	19.150195276264	0
0	2018	19.173603242525	1
0	2019	19.181728095079	0
0	2023	19.209766480339	1
0	2024	19.217884110813	0
0	2029	19.306520846895	1
0	2030	19.314550570223	0
0	2034	19.485286393436	1
0	2036	19.487965113729	2
0	2037	19.493158607875	1
0	2040	19.501024028095	0
0	2045	19.564754931516	1
0	2046	19.572559093754	0
0	2051	19.645552027641	1
0	2052	19.653288195707	0
0	2056	19.663635461486	1
0	2057	19.671356573524	0
0	2062	19.848971389065	1
0	2063	19.856541504996	0
0	2069	20.009732846784	1
0	2071	20.01145763284	2
0	2072	20.017176691168	1
0	2076	20.024614790681	0
0	2085	20.231642358443	1
0	2086	20.239153127291	0
0	2090	20.280800583676	1
0	2091	20.288328341254	0
0	2095	20.297476291241	1
0	2096	20.305009829294	0
0	2100	20.373357575548	1
0	2101	20.380917529628	0
0	2105	20.413319478156	1
0	2106	20.420893418505	0
0	2110	20.425484578904	1
0	2111	20.433062787198	0
0	2115	20.446490671286	1
0	2117	20.454076260591	0
0	2121	20.479598776465	1
0	2122	20.487196028356	0
0	2127	20.608406409421	1
0	2128	20.616049378013	0
0	2132	20.624432361349	1
0	2133	20.632081056424	0
0	2139	20.665479366968	1
0	2140	20.673142768399	0
0	2144	20.758961301798	1
0	2145	20.766658408004	0
0	2149	20.784607954598	1
0	2150	20.792314359557	0
0	2155	20.950328357753	1
0	2156	20.958095394145	0
0	2161	21.024176979932	1
0	2162	21.031971343394	0
0	2166	21.040905065603	1
0	2168	21.041529298438	2
0	2169	21.048705645888	1
0	2173	21.049394160115	2
0	2174	21.056509128571	1
0	2177	21.064315516894	0
0	2181	21.074023743098	1
0	2182	21.081836660902	0
0	2186	21.084131047421	1
0	2187	21.09194773822	0
0	2191	21.125987681199	1
0	2192	21.133820035694	0
0	2196	21.15504465988	1
0	2197	21.162871728651	0
0	2201	21.192492995824	1
0	2203	21.200308340149	0
0	2207	21.228906278983	1
0	2209	21.232785306043	2
0	2210	21.236710256553	1
0	2214	21.241471507559	2
0	2215	21.244511802338	1
0	2219	21.25231091861	0
0	2224	21.276898780739	1
0	2225	21.284687827401	0
0	2230	21.346433417325	1
0	2231	21.354200932197	0
0	2235	21.399151376626	1
0	2236	21.406902646261	0
0	2240	21.424550594597	1
0	2241	21.432294061599	0
0	2245	21.486367469329	1
0	2246	21.494092011684	0
0	2250	21.49586184039	1
0	2251	21.503583484326	0
0	2256	21.51286301769	1
0	2257	21.520579476977	0
0	2262	21.563679737618	1
0	2264	21.571380741351	0
0	2268	21.571847900353	1
0	2270	21.57954642557	0
0	2274	21.592427370503	1
0	2275	21.600119658231	0
0	2280	21.711176427724	1
0	2281	21.718781329267	0
0	2290	21.851610172972	1
0	2291	21.859224760769	0
0	2296	21.93585878188	1
0	2297	21.943448449883	0
0	2301	22.016499508935	1
0	2302	22.024065476617	0
0	2306	22.03595695963	1
0	2307	22.043517230914	0
0	2311	22.078764735942	1
0	2312	22.08631250489	0
0	2317	22.122156863277	1
0	2318	22.129712324613	0
0	2323	22.139335334112	1
0	2324	22.146906117654	0
0	2328	22.248443672727	1
0	2329	22.256113244419	0
0	2333	22.32107786496	1
0	2335	22.328814642537	0
0	2340	22.51727892353	1
0	2342	22.517683642131	2
0	2343	22.525203269589	1
0	2346	22.533135382602	0
0	2351	22.547663219203	1
0	2352	22.555617429031	0
0	2356	22.67219616446	1
0	2357	22.680275162563	0
0	2364	23.027218666979	1
0	2365	23.035640357257	0
0	2369	23.040128222912	1
0	2370	23.048554125171	0
0	2374	23.065502075844	1
0	2375	23.073936269083	0
0	2382	23.166750901021	1
0	2383	23.1752183407	0
0	2387	23.180326247338	1
0	2388	23.188798164606	0
0	2394	23.217132756135	1
0	2395	23.225616837241	0
0	2399	23.230211949246	1
0	2400	23.238700361187	0
0	2405	23.348978183094	1
0	2406	23.357506124701	0
0	2411	23.394792786361	1
0	2412	23.403343642842	0
0	2416	23.43161846454	1
0	2418	23.439252871489	2
0	2419	23.440197601745	1
0	2422	23.448783354289	0
0	2427	23.476775417887	1
0	2428	23.485389490297	0
0	2433	23.548300630358	1
0	2434	23.556929616163	0
0	2438	23.561225004329	1
0	2439	23.569847580798	0
0	2446	23.75644442231	1
0	2447	23.764971332593	0
0	2451	23.773168074864	1
0	2452	23.781686888436	0
0	2459	23.922161572535	1
0	2460	23.930585245748	0
0	2465	23.975880501425	1
0	2467	23.98394611586	0
0	2471	23.986267098525	1
0	2472	23.994298667046	0
0	2476	24.019668661498	1
0	2477	24.027694309985	0
0	2483	24.072274593352	1
0	2484	24.080290935733	0
0	2490	24.204012318003	1
0	2491	24.212005450108	0
0	2495	24.246032192418	1
0	2496	24.254017949477	0
0	2501	24.290563701234	1
0	2502	24.298541657261	0
0	2508	24.361577696539	1
0	2509	24.369543243815	0
0	2514	24.428367282699	1
0	2515	24.436287428341	0
0	2521	24.49626834572	1
0	2522	24.50411561814	0
0	2526	24.508899558639	1
0	2527	24.516733422586	0
0	2531	24.5577881455	1
0	2532	24.56557054156	0
0	2536	24.574682634358	1
0	2537	24.582447401473	0
0	2541	24.63476125336	1
0	2542	24.642463971887	0
0	2546	24.664434983646	1
0	2547	24.672107419866	0
0	2551	24.69423677859	1
0	2553	24.695692692492	2
0	2554	24.701879040515	1
0	2557	24.709513602852	0
0	2563	24.804078595154	1
0	2564	24.811592890629	0
0	2570	24.871977633325	1
0	2571	24.879704997915	0
0	2575	24.957281144801	1
0	2576	24.965144101256	0
0	2581	24.987220117232	1
0	2582	24.995077987358	0
0	2586	25.037793036343	1
0	2588	25.038906578851	2
0	2589	25.045642329569	1
0	2592	25.053490293275	0
0	2597	25.122249646211	1
0	2598	25.13008465771	0
0	2602	25.184558981268	1
0	2603	25.192383489445	0
0	2607	25.200479912153	1
0	2608	25.208301741095	0
0	2612	25.225451774041	1
0	2614	25.233054447792	2
0	2615	25.233269404318	1
0	2619	25.241085721097	0
0	2623	25.247098333356	1
0	2624	25.254912327716	0
0	2628	25.258756515939	1
0	2629	25.266568553504	0
0	2635	25.297878741802	1
0	2636	25.305684219965	0
0	2640	25.306285949615	1
0	2641	25.314090019626	0
0	2645	25.314865270679	1
0	2646	25.322667904235	0
0	2650	25.327287742115	1
0	2651	25.335088296685	0
0	2658	25.482982734386	1
0	2660	25.484381752187	2
0	2662	25.485265315033	3
0	2664	25.490757325972	2
0	2669	25.498530625632	1
0	2672	25.50630263401	0
0	2678	25.622297503339	1
0	2679	25.630049009507	0
0	2687	25.693883398268	1
0	2688	25.701629583047	0
0	2693	25.742241061124	1
0	2695	25.750085438065	0
0	2700	25.849805157416	1
0	2701	25.857748318403	0
0	2706	25.875823895177	1
0	2708	25.88377277926	0
0	2715	25.989218555506	1
0	2716	25.997192478535	0
0	2721	26.164342581219	1
0	2722	26.172355485246	0
0	2726	26.205682670251	1
0	2727	26.213704831869	0
0	2733	26.294696783033	1
0	2735	26.302738951038	0
0	2739	26.323568635183	1
0	2740	26.331617313737	0
0	2744	26.377680932577	1
0	2745	26.385641535709	0
0	2752	26.452311764869	1
0	2754	26.460140901788	0
0	2761	26.517794796409	1
0	2762	26.525777264564	0
0	2767	26.606429434508	1
0	2769	26.614500036903	0
0	2773	26.706487905142	1
0	2774	26.714660369227	0
0	2778	26.723758022679	1
0	2779	26.731948328886	0
0	2786	26.837805486617	1
0	2787	26.846384750581	0
0	2791	26.854678287306	1
0	2792	26.86333624933	0
0	2797	26.87104028709	1
0	2798	26.879775955975	0
0	2802	26.886698981	1
0	2803	26.89528040503	0
0	2809	26.960830268687	1
0	2810	26.969215699011	0
0	2815	27.069017301654	1
0	2816	27.077526337366	0
0	2820	27.134850276297	1
0	2822	27.143227422733	0
0	2828	27.296984121179	1
0	2829	27.304743050007	0
0	2839	27.486294074975	1
0	2840	27.494408000957	0
0	2844	27.495492787393	1
0	2846	27.503633707549	0
0	2850	27.526134640631	1
0	2851	27.534366791339	0
0	2856	27.686048567881	1
0	2857	27.694792075038	0
0	2863	27.766905458467	1
0	2864	27.775513794089	0
0	2868	27.805394925507	1
0	2870	27.805790507984	2
0	2872	27.813196797908	1
0	2875	27.820904422545	0
0	2879	27.8271915024	1
0	2880	27.834949113075	0
0	2884	27.89927133047	1
0	2885	27.9072970187	0
0	2889	27.977752846212	1
0	2890	27.986092313851	0
0	2894	28.007403582336	1
0	2895	28.01586807916	0
0	2901	28.150220397396	1
0	2902	28.158883956382	0
0	2906	28.257572423236	1
0	2907	28.266077372888	0
0	2911	28.274171675398	1
0	2912	28.282652617118	0
0	2916	28.364148382473	1
0	2918	28.368889068623	2
0	2919	28.37250151156	1
0	2923	28.380842970112	0
0	2928	28.425592064391	1
0	2930	28.428617835044	2
0	2931	28.433977614194	1
0	2934	28.44234611629	0
0	2938	28.444290314599	1
0	2939	28.452637945921	0
0	2945	28.534237531343	1
0	2946	28.5424074478	0
0	2951	28.548009553934	1
0	2952	28.556152925877	0
0	2956	28.568556025306	1
0	2959	28.576660114589	0
0	2963	28.587069275202	1
0	2964	28.595138292313	0
0	2970	28.644819852883	1
0	2971	28.652781389655	0
0	2975	28.666810639006	1
0	2976	28.674731997393	0
0	2980	28.677152931125	1
0	2983	28.682298926015	2
0	2984	28.685055533446	1
0	2987	28.69294386391	0
0	2991	28.770848511669	1
0	2992	28.77858515643	0
0	2996	28.803055907089	1
0	2998	28.810737103036	0
0	3002	28.831381730178	1
0	3003	28.839014812676	0
0	3008	28.852432816817	1
0	3010	28.855859792556	2
0	3011	28.860030531145	1
0	3014	28.867615560827	0
0	3020	28.964707894594	1
0	3021	28.972191577236	0
0	3025	29.015440387281	1
0	3026	29.022934449726	0
0	3030	29.034042225672	1
0	3031	29.041532444488	0
0	3035	29.044574614763	1
0	3037	29.047841179703	2
0	3038	29.052041198585	1
0	3041	29.05949111732	0
0	3047	29.078715667128	1
0	3048	29.086222716036	0
0	3054	29.208236952699	1
0	3056	29.215770725094	0
0	3060	29.238051484493	1
0	3061	29.245591435333	0
0	3065	29.254824296488	1
0	3066	29.262367727603	0
0	3071	29.399735285044	1
0	3072	29.407308918791	0
0	3078	29.560828537039	1
0	3079	29.568436031298	0
0	3085	29.705818732777	1
0	3086	29.713456962745	0
0	3090	29.722553689923	1
0	3091	29.730195483441	0
0	3096	29.743086562689	1
0	3097	29.750732733032	0
0	3102	29.864928892712	1
0	3103	29.872601138692	0
0	3108	29.880798562654	1
0	3109	29.888474218019	0
0	3113	29.888738297772	1
0	3114	29.89641566002	0
0	3118	30.001221947147	1
0	3119	30.008923572931	0
0	3124	30.071255104044	1
0	3125	30.078971914106	0
0	3132	30.134959575209	1
0	3134	30.141464211252	2
0	3135	30.142690249488	1
0	3139	30.15042260961	0
0	3143	30.162748301776	1
0	3144	30.170485039426	0
0	3148	30.17839171603	1
0	3149	30.186131871186	0
0	3154	30.239268741524	1
0	3156	30.246852233588	0
0	3161	30.284060671036	1
0	3162	30.29168330671	0
0	3171	30.438803420486	1
0	3172	30.44656445154	0
0	3176	30.495926332384	1
0	3177	30.503736515617	0
0	3181	30.588249103896	1
0	3182	30.596079886096	0
0	3186	30.644600993257	1
0	3189	30.647840449113	2
0	3190	30.652444402124	1
0	3193	30.660289571679	0
0	3198	30.755613603901	1
0	3199	30.763482006666	0
0	3205	30.967009906256	1
0	3207	30.974679811584	0
0	3212	30.996721697724	1
0	3213	31.004332128683	0
0	3220	31.123760821098	1
0	3223	31.131356272905	0
0	3230	31.231448642586	1
0	3231	31.239426006746	0
0	3236	31.258881132625	1
0	3238	31.266864870625	0
0	3242	31.274715611221	1
0	3243	31.282703032944	0
0	3249	31.396837211801	1
0	3250	31.404761189534	0
0	3254	31.447751980424	1
0	3255	31.455672778548	0
0	3259	31.483074131124	1
0	3261	31.483455828154	2
0	3262	31.490992724891	1
0	3265	31.498910824649	0
0	3269	31.561878440457	1
0	3270	31.569792120686	0
0	3274	31.575609269957	1
0	3275	31.583522094677	0
0	3279	31.672402807204	1
0	3280	31.680309606378	0
0	3284	31.68032594876	1
0	3285	31.688232255113	0
0	3289	31.688307978198	1
0	3291	31.696213788129	0
0	3296	31.71554516287	1
0	3297	31.723449279322	0
0	3301	31.737740914769	1
0	3302	31.745643651731	0
0	3307	31.785857418743	1
0	3309	31.788260799881	2
0	3312	31.792299448312	3
0	3313	31.793752506708	2
0	3317	31.796258237302	3
0	3318	31.801644080515	2
0	3321	31.809532144854	1
0	3324	31.817416704403	0
0	3328	31.846991040018	1
0	3329	31.854858998418	0
0	3335	31.899774197378	1
0	3336	31.907632398952	0
0	3340	31.909227374083	1
0	3341	31.917095074463	0
0	3345	31.95857360956	1
0	3347	31.966453818069	0
0	3353	32.063006169815	1
0	3354	32.070732690428	0
0	3359	32.242761581744	1
0	3361	32.247177540736	2
0	3362	32.250237149476	1
0	3366	32.257702633312	0
0	3370	32.263051188996	1
0	3372	32.268909495452	2
0	3373	32.270749119329	1
0	3376	32.278648929036	0
0	3381	32.419331851108	1
0	3382	32.427304941945	0
0	3386	32.432316253716	1
0	3388	32.440293105005	0
0	3392	32.467772683567	1
0	3393	32.475759821592	0
0	3398	32.523050842301	1
0	3400	32.531054070838	0
0	3404	32.586125556347	1
0	3405	32.594147224211	0
0	3409	32.618435583	1
0	3411	32.620817566299	2
0	3412	32.62646672936	1
0	3415	32.63450023522	0
0	3420	32.673375256932	1
0	3421	32.68142257197	0
0	3426	32.852827851771	1
0	3427	32.860928436108	0
0	3432	32.918749683635	1
0	3435	32.926870013975	0
0	3439	32.93235306128	1
0	3440	32.940477478318	0
0	3446	33.006082589043	1
0	3447	33.014229227511	0
0	3451	33.02284272107	1
0	3452	33.030994427861	0
0	3457	33.034640371893	1
0	3458	33.042795650119	0
0	3462	33.115945674618	1
0	3463	33.124125651289	0
0	3467	33.164673335518	1
0	3468	33.172868186216	0
0	3473	33.27862882931	1
0	3474	33.28685867678	0
0	3479	33.331660304688	1
0	3481	33.339906540731	0
0	3487	33.597445726536	1
0	3488	33.605843107311	0
0	3492	33.610870855324	1
0	3493	33.619239005339	0
0	3497	33.678633027659	1
0	3498	33.68685669013	0
0	3502	33.733941412275	1
0	3503	33.742050788997	0
0	3507	33.763314131645	1
0	3508	33.771364096396	0
0	3512	33.798832421115	1
0	3514	33.798911932024	2
0	3515	33.806811695896	1
0	3518	33.814775260441	0
0	3522	33.864707709422	1
0	3524	33.872559110435	0
0	3528	34.013402246845	1
0	3530	34.016401907441	2
0	3531	34.022503217988	1
0	3536	34.031619815797	0
0	3541	34.124391783562	1
0	3542	34.133317490457	0
0	3547	34.166234151251	1
0	3549	34.170295978305	2
0	3550	34.174999188853	1
0	3553	34.183731299843	0
0	3559	34.215372305262	1
0	3560	34.224207719575	0
0	3564	34.230250866559	1
0	3565	34.239267305442	0
0	3573	34.321879524917	1
0	3574	34.331632130265	0
0	3578	34.395159790384	1
0	3579	34.405011723612	0
0	3584	34.508605912988	1
0	3585	34.518379991297	0
0	3590	34.525187720049	1
0	3591	34.53479394359	0
0	3595	34.54712194861	1
0	3596	34.556445841674	0
0	3600	34.557219172483	1
0	3601	34.566418601033	0
0	3608	34.742930764232	1
0	3610	34.75112815502	0
0	3616	34.945129896263	1
0	3618	34.947350035985	2
0	3619	34.953894054301	1
0	3623	34.962632157028	0
0	3627	34.974687458801	1
0	3629	34.976439768919	2
0	3630	34.98336435946	1
0	3635	34.992015973829	0
0	3639	34.996760117352	1
0	3640	35.005372981804	0
0	3645	35.050839290841	1
0	3646	35.05936680471	0
0	3650	35.065171897239	1
0	3651	35.073693492934	0
0	3655	35.079857231741	1
0	3658	35.08332921097	2
0	3659	35.088372772129	1
0	3662	35.096884805185	0
0	3668	35.16558526922	1
0	3669	35.17378510888	0
0	3673	35.200350593561	1
0	3674	35.208664064938	0
0	3678	35.216613123761	1
0	3680	35.217935723533	2
0	3681	35.224980838036	1
0	3685	35.233376739159	0
0	3693	35.290608454926	1
0	3694	35.299038033152	0
0	3698	35.360261671425	1
0	3699	35.36859701019	0
0	3703	35.377705437888	1
0	3704	35.386010695652	0
0	3708	35.402998161029	1
0	3709	35.41126018624	0
0	3713	35.4129658876	1
0	3714	35.421210998481	0
0	3718	35.457041667376	1
0	3719	35.465212808384	0
0	3723	35.476657222726	1
0	3724	35.484795869138	0
0	3733	35.580988850363	1
0	3734	35.588780991415	0
0	3742	35.739231040567	1
0	3743	35.746706957457	0
0	3747	35.780841337594	1
0	3748	35.788317690274	0
0	3752	35.815222698473	1
0	3753	35.822699411272	0
0	3763	36.119828339139	1
0	3764	36.127865426584	0
0	3768	36.135783732198	1
0	3770	36.143820018147	0
0	3775	36.276085538621	1
0	3776	36.283965073975	0
0	3781	36.344330868044	1
0	3782	36.3520900158	0
0	3786	36.387622343174	1
0	3788	36.395307011607	0
0	3792	36.441932919008	1
0	3794	36.449526148695	0
0	3800	36.507426822984	1
0	3801	36.515444485119	0
0	3805	36.548150018711	1
0	3806	36.556165645368	0
0	3813	36.645743342177	1
0	3815	36.653754095004	0
0	3819	36.702657566735	1
0	3820	36.71066547999	0
0	3824	36.716298359301	1
0	3825	36.724305592286	0
0	3829	36.789981648159	1
0	3830	36.79798520854	0
0	3834	36.821685855128	1
0	3835	36.829687836309	0
0	3840	36.881693036183	1
0	3841	36.889692030087	0
0	3846	37.000308065931	1
0	3847	37.008301161499	0
0	3851	37.017259108105	1
0	3853	37.020073249483	2
0	3854	37.025251361463	1
0	3857	37.033243217789	0
0	3861	37.033422750964	1
0	3863	37.0414142014	0
0	3868	37.075758310446	1
0	3870	37.082519546547	2
0	3871	37.083208934901	1
0	3874	37.090681559445	0
0	3879	37.098682736222	1
0	3880	37.106201469243	0
0	3886	37.143500861424	1
0	3887	37.151156411644	0
0	3891	37.171444839683	1
0	3892	37.179188244102	0
0	3898	37.248683941191	1
0	3899	37.256664713976	0
0	3903	37.263230956513	1
0	3904	37.271211008748	0
0	3911	37.3375577035	1
0	3912	37.345534076176	0
0	3917	37.389670672811	1
0	3919	37.393520464553	2
0	3920	37.397644467648	1
0	3923	37.405617868198	0
0	3928	37.490792125543	1
0	3931	37.498559557246	0
0	3935	37.559491398634	1
0	3936	37.567304302542	0
0	3944	37.70172984825	1
0	3945	37.709638613193	0
0	3949	37.709838101955	1
0	3950	37.717752402342	0
0	3954	37.718703002528	1
0	3955	37.726622477936	0
0	3961	37.848784670466	1
0	3962	37.856671306473	0
0	3967	37.983625090882	1
0	3968	37.991477972375	0
0	3972	38.004956495602	1
0	3974	38.012804063671	0
0	3981	38.086358010221	1
0	3982	38.094185367947	0
0	3987	38.134029060217	1
0	3988	38.141844630449	0
0	3992	38.217288613772	1
0	3993	38.225083681563	0
0	3997	38.291463937794	1
0	3998	38.299240830503	0
0	4004	38.374865298596	1
0	4005	38.382621856538	0
0	4010	38.432602176173	1
0	4012	38.440344718993	0
0	4016	38.450096405763	1
0	4017	38.457834712005	0
0	4025	38.634749801812	1
0	4026	38.642443671643	0
0	4031	38.65577694633	1
0	4032	38.663465788373	0
0	4037	38.714470588254	1
0	4038	38.722145430801	0
0	4042	38.748182338236	1
0	4043	38.755849162946	0
0	4047	38.784595733267	1
0	4049	38.789361629357	2
0	4050	38.792253916393	1
0	4053	38.799910284566	0
0	4057	38.845786562233	1
0	4058	38.853430267413	0
0	4062	38.885348215726	1
0	4063	38.892982589595	0
0	4068	38.941178231273	1
0	4069	38.948799475346	0
0	4073	38.998746800853	1
0	4074	39.006354553476	0
0	4078	39.012936443896	1
0	4079	39.020540878448	0
0	4083	39.022687377924	1
0	4084	39.030289534019	0
0	4088	39.048710100591	1
0	4090	39.051977535714	2
0	4091	39.056306182752	1
0	4094	39.06390049375	0
0	4099	39.140565180123	1
0	4100	39.14813989987	0
0	4105	39.256628546597	1
0	4106	39.264176445113	0
0	4112	39.322178176004	1
0	4114	39.329711010336	0
0	4119	39.36360203703	1
0	4120	39.37112538257	0
0	4126	39.466171798207	1
0	4127	39.473671751076	0
0	4131	39.484349830731	1
0	4132	39.491845652977	0
0	4136	39.523777893715	1
0	4137	39.531264772277	0
0	4142	39.60706611541	1
0	4143	39.614534171232	0
0	4149	39.67213711565	1
0	4151	39.679631561053	0
0	4157	39.712837315463	1
0	4158	39.720364138357	0
0	4162	39.728739792566	1
0	4163	39.736279342205	0
0	4167	39.764824998454	1
0	4169	39.765173016969	2
0	4170	39.772393587314	1
0	4174	39.773473229226	2
0	4175	39.779968295325	1
0	4178	39.787549137349	0
0	4182	39.805658856444	1
0	4183	39.813260576925	0
0	4187	39.820669746256	1
0	4189	39.828283719248	0
0	4193	39.890850926734	1
0	4194	39.898522712516	0
0	4198	39.912434280713	1
0	4199	39.920124023034	0
0	4203	39.936534240076	1
0	4204	39.944244132249	0
0	4209	40.002640857828	1
0	4211	40.006947483133	2
0	4212	40.010406567432	1
0	4215	40.018178887142	0
0	4219	40.021676918892	1
0	4220	40.02945885187	0
0	4225	40.115027473539	1
0	4226	40.122868738441	0
0	4230	40.146434666684	1
0	4231	40.154274429974	0
0	4235	40.223184615404	1
0	4236	40.231020711616	0
0	4242	40.392745008037	1
0	4243	40.400573014877	0
0	4247	40.570455707793	1
0	4248	40.578275254332	0
0	4254	40.751022177475	1
0	4255	40.758833146469	0
0	4260	40.843052850046	1
0	4261	40.850859454494	0
0	4265	40.860724452307	1
0	4266	40.868530219239	0
0	4270	40.879307031605	1
0	4272	40.88709246531	0
0	4276	40.959070249722	1
0	4278	40.966759357115	0
0	4286	41.145572499495	1
0	4287	41.153045417804	0
0	4296	41.293760740211	1
0	4297	41.301308396926	0
0	4301	41.342826314208	1
0	4302	41.350416524879	0
0	4307	41.383893363589	1
0	4308	41.391519561828	0
0	4313	41.442141104361	1
0	4314	41.449818935057	0
0	4319	41.497498484625	1
0	4320	41.505226037843	0
0	4332	41.630203925875	1
0	4333	41.638053340187	0
0	4337	41.666774863944	1
0	4338	41.674658539187	0
0	4343	41.877897271014	1
0	4344	41.88533799055	0
0	4349	41.894256431541	1
0	4351	41.894578185128	2
0	4352	41.901713633328	1
0	4355	41.909178372681	0
0	4359	41.929838965457	1
0	4360	41.937332270876	0
0	4364	41.974744261977	1
0	4365	41.982283632364	0
0	4370	42.056271151999	1
0	4371	42.063895618576	0
0	4376	42.141233217661	1
0	4377	42.148948434387	0
0	4383	42.218077414535	1
0	4384	42.225876591306	0
0	4388	42.227103688594	1
0	4389	42.234912847565	0
0	4393	42.243416092344	1
0	4394	42.251243356246	0
0	4398	42.326614601639	1
0	4399	42.334535528139	0
0	4403	42.404159490774	1
0	4405	42.412169756207	0
0	4409	42.429316632402	1
0	4410	42.437356315746	0
0	4414	42.454175671103	1
0	4416	42.461526230773	2
0	4417	42.462244636791	1
0	4421	42.465664459516	2
0	4422	42.47032315311	1
0	4425	42.478411254039	0
0	4430	42.526832423356	1
0	4431	42.534893451758	0
0	4436	42.617602539386	1
0	4437	42.625574183277	0
0	4444	42.69107337831	1
0	4445	42.698974111574	0
0	4450	42.842688251559	1
0	4451	42.850446569146	0
0	4455	42.869221034	1
0	4457	42.874587219841	2