version 3
run monitoring-exponential-0-20221227-11:24:54-22864
attr configname monitoring-exponential
attr datetime 20221227-11:24:54
attr datetimef 20221227-112454
attr experiment monitoring-exponential
attr inifile omnetpp.ini
attr iterationvars ""
attr iterationvarsd ""
attr iterationvarsf ""
attr measurement ""
attr network AerocomSys
attr processid 22864
attr repetition 0
attr replication #0
attr resultdir results
attr runnumber 0
attr seedset 0
config description "aircraft in monitoring mode, new capacity selected with exponential distrbution"
config **.kMean 0.05
config **.X 0.9
config **.m 1
config **.exponentialMean 1
config **.generationMode 1
config **.operationMode 0
config network AerocomSys
config repeat 1
config seed-set 0
config num-rngs 3
config **.size 100
config **.minCapacity 6000
config **.maxCapacity 15000
config sim-time-limit 300s
config warmup-period 10s
config rng-class omnetpp::cMersenneTwister
config **.nDL 5
config **.nAC 1
config **.PacketGenerator.rng-0 0
config **.LinkSelector.rng-1 1
config **.DataLink[*].rng-0 0

vector 0 AerocomSys.airCraft[0].linkSelector queueLengthStatistic:vector ETV
attr recordingmode vector
attr source queueLength
attr title "queue length statistic"
vector 1 AerocomSys.airCraft[0].linkSelector serviceTimeStatistic:vector ETV
attr recordingmode vector
attr source serviceTime
attr title "service time statistic"
vector 2 AerocomSys.airCraft[0].linkSelector waitingTimeStatistic:vector ETV
attr recordingmode vector
attr source waitingTime
attr title "waiting time statistic"
vector 3 AerocomSys.controlTower responseTimeStatistic:vector ETV
attr recordingmode vector
attr source responseTime
attr title "response time statistic"
0	845	10.005245567619	72
0	847	10.047399719226	73
0	852	10.063135802269	73
0	855	10.123961234941	74
0	860	10.190399128629	74
0	865	10.207416465541	74
0	874	10.371173624427	73
0	876	10.399568832101	74
0	878	10.413869880726	75
0	884	10.484421101191	75
0	889	10.527340749582	75
0	891	10.552557939911	76
0	896	10.59738748345	76
0	904	10.710574162243	75
0	906	10.753035202821	76
0	911	10.803968139322	76
0	913	10.816589138967	77
0	922	10.927664483891	76
0	932	11.080278566735	75
0	938	11.137258964912	75
0	940	11.166890166285	76
0	942	11.196709136001	77
0	950	11.290382129994	76
0	958	11.482532459156	75
0	963	11.542644387518	75
0	965	11.548820719886	76
0	970	11.56647172655	76
0	976	11.639312654478	76
0	982	11.723358764705	76
0	984	11.749894889536	77
0	989	11.775145826924	77
0	992	11.831409927766	78
0	1000	11.937884897569	77
0	1002	11.952255421373	78
0	1008	11.995782212689	78
0	1011	12.014569154809	79
0	1016	12.121310677308	79
0	1028	12.289529199961	77
0	1033	12.348498346643	77
0	1035	12.392891417165	78
0	1040	12.457486880605	78
0	1045	12.511378624812	78
0	1047	12.546168597857	79
0	1052	12.584261986422	79
0	1060	12.740535404305	78
0	1062	12.753638266389	79
0	1069	12.805278116921	79
0	1071	12.830393656834	80
0	1076	12.857963456341	80
0	1078	12.906186134616	81
0	1083	12.952806278636	81
0	1088	12.985011514052	81
0	1090	12.985980503119	82
0	1092	13.017736888901	83
0	1095	13.035683249694	84
0	1100	13.098635425557	84
0	1105	13.15260143549	84
0	1107	13.169584672119	85
0	1109	13.186714653354	86
0	1114	13.210896437683	86
0	1116	13.259015190472	87
0	1121	13.328164150799	87
0	1128	13.356162204303	87
0	1134	13.461534584551	87
0	1136	13.468813283473	88
0	1141	13.474240638398	88
0	1143	13.49195184501	89
0	1145	13.496797982739	90
0	1147	13.538992406369	91
0	1152	13.560843807058	91
0	1154	13.605530260973	92
0	1159	13.645657860261	92
0	1161	13.688361847043	93
0	1166	13.690072017961	93
0	1168	13.74302248723	94
0	1180	13.916649261194	92
0	1182	13.969441741627	93
0	1187	13.988798246234	93
0	1189	14.01702877129	94
0	1191	14.029532846039	95
0	1199	14.142964545674	94
0	1201	14.150579226937	95
0	1203	14.173487871135	96
0	1205	14.178603901878	97
0	1210	14.207226979449	97
0	1224	14.414117467475	95
0	1230	14.525363200336	95
0	1232	14.540441495997	96
0	1240	14.622486374893	95
0	1242	14.66099021787	96
0	1247	14.721841192637	96
0	1249	14.751544867553	97
0	1254	14.756825499734	97
0	1256	14.762069591514	98
0	1263	14.888033698018	98
0	1269	14.909750980815	98
0	1276	14.972381357061	98
0	1278	15.004054487947	99
0	1298	15.342324013944	95
0	1303	15.434310653198	95
0	1305	15.442404157534	96
0	1314	15.559913022022	95
0	1322	15.661208462877	94
0	1324	15.663122608521	95
0	1326	15.671988887278	96
0	1328	15.707484783639	97
0	1333	15.755283104835	97
0	1335	15.764410034929	98
0	1337	15.77101922041	99
0	1343	15.84651039319	99
0	1351	15.940706837519	98
0	1356	16.040806162295	98
0	1362	16.123142117361	98
0	1367	16.149642261268	98
0	1369	16.191736309355	99
0	1371	16.199275859865	100
0	1376	16.225419361369	100
0	1378	16.227108700647	101
0	1380	16.230692469863	102
0	1393	16.433184811803	100
0	1395	16.492956740117	101
0	1400	16.516320368437	101
0	1403	16.546535322029	102
0	1408	16.573778178436	102
0	1410	16.637794888627	103
0	1412	16.640390516236	104
0	1421	16.741029153046	103
0	1423	16.763774745286	104
0	1432	16.949272774881	103
0	1434	16.950111163181	104
0	1442	17.046940025056	103
0	1444	17.060056490514	104
0	1446	17.06064565211	105
0	1451	17.133035356209	105
0	1453	17.155347997235	106
0	1461	17.29957858484	105
0	1466	17.365043503041	105
0	1471	17.434358070642	105
0	1473	17.443772819403	106
0	1475	17.464503446536	107
0	1480	17.501310001535	107
0	1482	17.534933027377	108
0	1484	17.537726530021	109
0	1489	17.558425476155	109
0	1491	17.56958243656	110
0	1493	17.579473911933	111
0	1495	17.580408685454	112
0	1497	17.589784633014	113
0	1502	17.668705269119	113
0	1507	17.699835136318	113
0	1509	17.712510421575	114
0	1515	17.816311974597	114
0	1520	17.837494829665	114
0	1528	17.981722044085	113
0	1536	18.113332987212	112
0	1538	18.160189923098	113
0	1543	18.221129763265	113
0	1548	18.266527964631	113
0	1550	18.268145804863	114
0	1556	18.344687366176	114
0	1558	18.353685233254	115
0	1563	18.388345221731	115
0	1567	18.436919329636	116
0	1569	18.439503474926	117
0	1574	18.48254965676	117
0	1579	18.542598202087	117
0	1581	18.556181605604	118
0	1594	18.800138250004	116
0	1602	18.9362056628	115
0	1604	18.951754053048	116
0	1606	18.999345538425	117
0	1611	19.056175363188	117
0	1617	19.094529345917	117
0	1623	19.194387944291	117
0	1628	19.238956873137	117
0	1630	19.308440726326	118
0	1636	19.373929994894	118
0	1649	19.540826711587	116
0	1651	19.559521036382	117
0	1653	19.599920039052	118
0	1658	19.625313295186	118
0	1660	19.637250938828	119
0	1662	19.649027167499	120
0	1664	19.661607098155	121
0	1666	19.671908700579	122
0	1668	19.684251664019	123
0	1676	19.828705443614	122
0	1681	19.870854382385	122
0	1687	19.938121754047	122
0	1689	19.968205703373	123
0	1694	20.001917931855	123
0	1702	20.177641865882	122
0	1704	20.190542504079	123
0	1710	20.247599399222	123
0	1715	20.262274781818	123
0	1717	20.266732496318	124
0	1719	20.269721544464	125
0	1721	20.27262516257	126
0	1723	20.301120040835	127
0	1728	20.334575727019	127
0	1730	20.353259216739	128
0	1735	20.459692721466	128
0	1741	20.519285626649	128
0	1753	20.70662035734	126
0	1755	20.730341171857	127
0	1760	20.778413150436	127
0	1762	20.788311537203	128
0	1767	20.827410323247	128
0	1769	20.828659740913	129
0	1775	20.925077747757	129
0	1777	20.928558631311	130
0	1782	20.996655217526	130
0	1787	21.053532142803	130
0	1789	21.086093679399	131
0	1794	21.116322740316	131
0	1797	21.172840517612	132
0	1802	21.211296507667	132
0	1807	21.257999524297	132
0	1812	21.371491525086	132
0	1817	21.434201688591	132
0	1832	21.66618431491	130
0	1837	21.69788081588	130
0	1839	21.710105366982	131
0	1841	21.740547012669	132
0	1848	21.79494223435	132
0	1858	21.913388142892	131
0	1860	21.928668387983	132
0	1862	21.936048189628	133
0	1864	21.937091550559	134
0	1866	21.950109121136	135
0	1872	22.021128293915	135
0	1878	22.127806458289	135
0	1883	22.147090842991	135
0	1891	22.264483031062	135
0	1893	22.288664950436	136
0	1898	22.34055745421	136
0	1900	22.384932550634	137
0	1905	22.404561202043	137
0	1911	22.493468368885	137
0	1914	22.530136752543	138
0	1920	22.579711967188	138
0	1922	22.579714734783	139
0	1927	22.682755796827	139
0	1929	22.701443961518	140
0	1934	22.717422694262	140
0	1936	22.745131235714	141
0	1943	22.825117207806	141
0	1949	22.93340539185	141
0	1951	22.943672780287	142
0	1956	23.000625662821	142
0	1966	23.153284896301	141
0	1968	23.183737126936	142
0	1973	23.241892791107	142
0	1975	23.274917945094	143
0	1978	23.287053869778	144
0	1984	23.364787016668	144
0	1992	23.512011030539	143
0	1994	23.525043037008	144
0	2000	23.590668436656	144
0	2005	23.696805769353	144
0	2010	23.711453342277	144
0	2012	23.730274809853	145
0	2014	23.742270985825	146
0	2022	23.900125762896	145
0	2027	23.936637146158	145
0	2029	23.968546576438	146
0	2031	23.969846463698	147
0	2036	24.032014002595	147
0	2038	24.043640253514	148
0	2040	24.051983985576	149
0	2042	24.079625904109	150
0	2048	24.145174522517	150
0	2053	24.168608346316	150
0	2055	24.220568628145	151
0	2060	24.251710093633	151
0	2062	24.263806075872	152
0	2064	24.280066876771	153
0	2066	24.290384776451	154
0	2071	24.334574059253	154
0	2077	24.416977867911	154
0	2082	24.516679827975	154
0	2087	24.585413825665	154
0	2089	24.591665455161	155
0	2094	24.647838480138	155
0	2099	24.684264672275	155
0	2101	24.700474627949	156
0	2103	24.707556729689	157
0	2105	24.717169801731	158
0	2110	24.780260435405	158
0	2115	24.841210402664	158
0	2117	24.866424399327	159
0	2122	24.897526245281	159
0	2126	24.939195157313	160
0	2131	25.03095832746	160
0	2133	25.041081265645	161
0	2138	25.052543481905	161
0	2140	25.060367270424	162
0	2142	25.069380985403	163
0	2144	25.102858014946	164
0	2146	25.10952504611	165
0	2151	25.131497815635	165
0	2154	25.195519033334	166
0	2166	25.336550830755	165
0	2168	25.338097145333	166
0	2173	25.410574884154	166
0	2178	25.479292034875	166
0	2183	25.548340189658	166
0	2185	25.553198573576	167
0	2190	25.670223171609	167
0	2192	25.682483076241	168
0	2197	25.686838505404	168
0	2199	25.756004328712	169
0	2205	25.796173916845	169
0	2211	25.86195522976	169
0	2217	25.905865983696	169
0	2219	25.908200370878	170
0	2226	26.071625190919	170
0	2231	26.083357983382	170
0	2233	26.100633962567	171
0	2235	26.117541698309	172
0	2237	26.131318095161	173
0	2242	26.18786401912	173
0	2244	26.193148377825	174
0	2246	26.196404021064	175
0	2248	26.197232325785	176
0	2251	26.237789376896	177
0	2259	26.370417302672	176
0	2261	26.370881453891	177
0	2264	26.426301941602	178
0	2271	26.515801421826	178
0	2276	26.59269285755	178
0	2284	26.800491412328	177
0	2286	26.817036906387	178
0	2291	26.877821430055	178
0	2293	26.921965457303	179
0	2298	26.931987567057	179
0	2300	26.935292167592	180
0	2302	26.971204491597	181
0	2305	27.004444879075	182
0	2310	27.047873165648	182
0	2317	27.237574354802	182
0	2322	27.31502493876	182
0	2329	27.419602767391	182
0	2334	27.466233360154	182
0	2336	27.48686985349	183
0	2338	27.499190644601	184
0	2347	27.66213669346	183
0	2349	27.692500657891	184
0	2351	27.705679513533	185
0	2356	27.811223952252	185
0	2365	27.960333986026	184
0	2367	27.994224086129	185
0	2376	28.136056095798	184
0	2382	28.198917945577	184
0	2387	28.27919088373	184
0	2389	28.312483008062	185
0	2394	28.36225619023	185
0	2399	28.423900213382	185
0	2407	28.527588286537	185
0	2412	28.562060013429	185
0	2414	28.579397678618	186
0	2419	28.672469260767	186
0	2425	28.766974345672	186
0	2430	28.777779156502	186
0	2433	28.825879752832	187
0	2438	28.900091876965	187
0	2440	28.900758139206	188
0	2452	29.083741005744	186
0	2454	29.105067796346	187
0	2460	29.204205241576	187
0	2462	29.2122219463	188
0	2467	29.288025392791	188
0	2478	29.488422875535	186
0	2486	29.698515846847	185
0	2491	29.731055713965	185
0	2496	29.801089498813	185
0	2499	29.835486672736	186
0	2501	29.835689488802	187
0	2506	29.8866988432	187
0	2508	29.902398738103	188
0	2513	29.925388303992	188
0	2516	29.951811665407	189
0	2518	29.959172917273	190
0	2520	29.987123300773	191
0	2528	30.07345496976	190
0	2530	30.091134798523	191
0	2532	30.101661462933	192
0	2534	30.127297195064	193
0	2539	30.163099460964	193
0	2541	30.169528472828	194
0	2543	30.182229041746	195
0	2557	30.379610705124	193
0	2559	30.38475912331	194
0	2564	30.410813064364	194
0	2570	30.509907581419	194
0	2575	30.552014396561	194
0	2583	30.73246144681	193
0	2588	30.753511111712	193
0	2596	30.915509260057	192
0	2603	30.993273978075	192
0	2611	31.111793357106	191
0	2613	31.13829143607	192
0	2618	31.212662923787	192
0	2620	31.234920390757	193
0	2622	31.255179534874	194
0	2627	31.280679076566	194
0	2629	31.284908051154	195
0	2631	31.30287274641	196
0	2633	31.329021129093	197
0	2638	31.403652737303	197
0	2640	31.41686626051	198
0	2648	31.547194850626	197
0	2650	31.554301126196	198
0	2656	31.573976246752	198
0	2658	31.57672161538	199
0	2669	31.72946460433	198
0	2671	31.79412199727	199
0	2673	31.794824326832	200
0	2675	31.795398989342	201
0	2680	31.833520173553	201
0	2685	31.907130381453	201
0	2687	31.925292492398	202
0	2689	31.933239151381	203
0	2697	32.040458424607	202
0	2699	32.044601538253	203
0	2701	32.05902717377	204
0	2703	32.063720901134	205
0	2708	32.120289839514	205
0	2710	32.176034210609	206
0	2718	32.259182499643	205
0	2720	32.273258700767	206
0	2723	32.301553427849	207
0	2728	32.328836313587	207
0	2734	32.39857976815	207
0	2736	32.439330684695	208
0	2741	32.527811675855	208
0	2749	32.626314554135	207
0	2751	32.650138483265	208
0	2756	32.715060765045	208
0	2758	32.720137469242	209
0	2760	32.735895470678	210
0	2765	32.75069056434	210
0	2767	32.757738958561	211
0	2769	32.802555418812	212
0	2771	32.805403745435	213
0	2778	32.837762480637	213
0	2780	32.855710546556	214
0	2785	32.889175690155	214
0	2787	32.904374268116	215
0	2789	32.935046222596	216
0	2795	32.965499445362	216
0	2797	33.002678604951	217
0	2803	33.060165674338	217
0	2805	33.08933686289	218
0	2810	33.148811675457	218
0	2816	33.244553788339	218
0	2821	33.261223955258	218
0	2823	33.289632479445	219
0	2825	33.313528378821	220
0	2830	33.401214111072	220
0	2835	33.411206887968	220
0	2837	33.446807291249	221
0	2844	33.524494566351	221
0	2846	33.529011428555	222
0	2848	33.531937823502	223
0	2853	33.585884168927	223
0	2858	33.645584837457	223
0	2860	33.657155886055	224
0	2865	33.732566647636	224
0	2870	33.826522569347	224
0	2875	33.901643209033	224
0	2877	33.958827740062	225
0	2882	33.973843994076	225
0	2884	33.983667088371	226
0	2887	34.007072411033	227
0	2889	34.010693366539	228
0	2894	34.05498139884	228
0	2896	34.055468169307	229
0	2898	34.071397361701	230
0	2903	34.182701561173	230
0	2905	34.20587106255	231
0	2910	34.213033713619	231
0	2912	34.224007121664	232
0	2917	34.299530201725	232
0	2919	34.330326165914	233
0	2927	34.459948596353	232
0	2929	34.462230498828	233
0	2934	34.525025173045	233
0	2940	34.605446065499	233
0	2942	34.639193614182	234
0	2944	34.643197556979	235
0	2949	34.674894163304	235
0	2954	34.711471430261	236
0	2959	34.818626415282	236
0	2964	34.836948979874	236
0	2966	34.870460573703	237
0	2971	34.913543948293	237
0	2974	34.940314165848	238
0	2982	35.100554607329	237
0	2984	35.110119409624	238
0	2989	35.161981664329	238
0	2994	35.194227088887	238
0	2996	35.196027230374	239
0	3003	35.272569651321	239
0	3005	35.300710911412	240
0	3007	35.341355829471	241
0	3012	35.377025043611	241
0	3014	35.38573480163	242
0	3016	35.424147468723	243
0	3021	35.431911747998	243
0	3023	35.489101516954	244
0	3028	35.541515972202	244
0	3030	35.557774515726	245
0	3035	35.596516634701	245
0	3037	35.603414296297	246
0	3039	35.623117174894	247
0	3041	35.648051791538	248
0	3043	35.656002392378	249
0	3053	35.812643866855	248
0	3055	35.821353802684	249
0	3057	35.831713061797	250
0	3059	35.838642402868	251
0	3068	35.955804399373	250
0	3073	35.999051304844	250
0	3075	36.038293155824	251
0	3077	36.043133029439	252
0	3079	36.073657171689	253
0	3087	36.194357993214	252
0	3092	36.301229077735	252
0	3094	36.305559927457	253
0	3099	36.336240137944	253
0	3105	36.4168067379	253
0	3110	36.481204836654	253
0	3115	36.58603665033	253
0	3117	36.611496774673	254
0	3119	36.616402750804	255
0	3127	36.733596232844	254
0	3129	36.761379178502	255
0	3134	36.819942363249	255
0	3136	36.851991040512	256
0	3141	36.912126729703	256
0	3146	36.955525228804	256
0	3148	36.975379276305	257
0	3153	37.038361334836	257
0	3158	37.109050501313	257
0	3160	37.110422606335	258
0	3162	37.16096106449	259
0	3167	37.226687169394	259
0	3169	37.240410345494	260
0	3174	37.313238356073	260
0	3176	37.321988108484	261
0	3178	37.322478830304	262
0	3184	37.402056636444	262
0	3189	37.420485783425	262
0	3199	37.580398532264	261
0	3201	37.593653187334	262
0	3203	37.624290459577	263
0	3208	37.659291741383	263
0	3210	37.703991811517	264
0	3219	37.857645572656	263
0	3225	37.955144418248	263
0	3230	37.995945346446	263
0	3232	38.02649822451	264
0	3234	38.03162581916	265
0	3243	38.18332294778	264
0	3248	38.231923492333	264
0	3250	38.274795247464	265
0	3259	38.374192220206	264
0	3264	38.460145685795	264
0	3266	38.468722617164	265
0	3272	38.588481606633	265
0	3287	38.83265655615	262
0	3292	38.917168303888	262
0	3294	38.921609923021	263
0	3296	38.930292751181	264
0	3298	38.935253827505	265
0	3300	38.984817802793	266
0	3305	39.035020361487	266
0	3307	39.06043133419	267
0	3315	39.209520317056	266
0	3318	39.212758601695	267
0	3326	39.350788824479	266
0	3328	39.378374005109	267
0	3330	39.408028084975	268
0	3332	39.422994504096	269
0	3339	39.488036375469	269
0	3344	39.582572833191	269
0	3349	39.650358758884	269
0	3351	39.652052351646	270
0	3353	39.670387609336	271
0	3360	39.83007570297	271
0	3362	39.83645438166	272
0	3367	39.858408230939	272
0	3369	39.887746671273	273
0	3371	39.909804411809	274
0	3377	39.934664876126	274
0	3379	39.935488040325	275
0	3381	39.973436279037	276
0	3383	39.983678892394	277
0	3388	40.077010915903	277
0	3390	40.102657265494	278
0	3396	40.141080394364	278
0	3401	40.273539807476	278
0	3406	40.330553751322	278
0	3408	40.335800388688	279
0	3411	40.382775487981	280
0	3423	40.528071468164	278
0	3425	40.533255009996	279
0	3431	40.63506971936	279
0	3433	40.639896783311	280
0	3438	40.670168472393	280
0	3440	40.673048118234	281
0	3442	40.692826398254	282
0	3444	40.697351771761	283
0	3446	40.710598518643	284
0	3448	40.72413473818	285
0	3454	40.771790865093	285
0	3462	40.863267972886	284
0	3464	40.864949668932	285
0	3466	40.901895669929	286
0	3468	40.902682126118	287
0	3473	40.938664371002	287
0	3475	40.966664789669	288
0	3480	41.019131897965	288
0	3482	41.022656995383	289
0	3484	41.061984949978	290
0	3489	41.076498620734	290
0	3491	41.078148819987	291
0	3493	41.090646360819	292
0	3496	41.134039454313	293
0	3501	41.148636757899	293
0	3506	41.222357869138	293
0	3508	41.229381654986	294
0	3510	41.252980059375	295
0	3512	41.253585521628	296
0	3517	41.287353315137	296
0	3519	41.293489065503	297
0	3527	41.493367239339	296
0	3533	41.541546874153	296
0	3535	41.555575670462	297
0	3546	41.738553776385	295
0	3550	41.761999842749	296
0	3565	41.994013842546	293
0	3567	41.996350587633	294
0	3569	42.022652127421	295
0	3571	42.041210213461	296
0	3576	42.050104051354	296
0	3581	42.139150785099	296
0	3586	42.190061664039	296
0	3592	42.272320835393	296
0	3595	42.306018007604	297
0	3600	42.357103924974	297
0	3612	42.584495117567	295
0	3614	42.607446513941	296
0	3616	42.610823221785	297
0	3621	42.629576318941	297
0	3626	42.706023262477	297
0	3633	42.786956315798	297
0	3635	42.803968176779	298
0	3637	42.807620759637	299
0	3639	42.821436019283	300
0	3644	42.878969148929	300
0	3646	42.933279314487	301
0	3651	42.957239949211	301
0	3653	42.971362284809	302
0	3656	43.021608950262	303
0	3661	43.076418578312	303
0	3666	43.207200624933	303
0	3672	43.243619503585	303
0	3678	43.339806432118	303
0	3680	43.3673965382	304
0	3682	43.401822232602	305
0	3687	43.442271217359	305
0	3689	43.470187556822	306
0	3691	43.487104862757	307
0	3697	43.573560844641	307
0	3702	43.634867455253	307
0	3707	43.701881253352	307
0	3709	43.728676193119	308
0	3714	43.758309064016	308
0	3716	43.780666059146	309
0	3725	43.954198313173	308
0	3730	44.042402682782	308
0	3732	44.064964622707	309
0	3740	44.194455929982	308
0	3745	44.219792090677	308
0	3747	44.22214705423	309
0	3752	44.289248041289	309
0	3754	44.302487154956	310
0	3756	44.332295749526	311
0	3758	44.353721129735	312
0	3767	44.492178353877	311
0	3777	44.576539268315	310
0	3779	44.59140794471	311
0	3792	44.803058734527	309
0	3794	44.827102645742	310
0	3803	45.000745431037	309
0	3808	45.060469928212	309
0	3816	45.178136666616	308
0	3821	45.29182202495	308
0	3823	45.309410394221	309
0	3825	45.31586231938	310
0	3837	45.557348331778	308
0	3839	45.571171967605	309
0	3841	45.585517422374	310
0	3843	45.598473035168	311
0	3846	45.604070262225	312
0	3851	45.637689407327	312
0	3859	45.788437820936	311
0	3864	45.899498530096	311
0	3866	45.912789357547	312
0	3868	45.934956077347	313
0	3873	45.993477863848	313
0	3876	46.017803820836	314
0	3878	46.020810239293	315
0	3887	46.14509179351	314
0	3892	46.210689947564	314
0	3894	46.216731517377	315
0	3900	46.323466637104	315
0	3908	46.373331583312	315
0	3910	46.389234310572	316
0	3912	46.396359457855	317
0	3914	46.420185248904	318
0	3919	46.443625033486	318
0	3921	46.467068941267	319
0	3923	46.486677005748	320
0	3928	46.55574995974	320
0	3935	46.612739730073	320
0	3937	46.626317519657	321
0	3943	46.705685381142	321
0	3945	46.715113617355	322
0	3947	46.750165892821	323
0	3950	46.779993388665	324
0	3955	46.797559452742	324
0	3957	46.815713394751	325
0	3963	46.924274688819	325
0	3969	47.01565100221	325
0	3971	47.037334244979	326
0	3973	47.0509077433	327
0	3978	47.11795282953	327
0	3983	47.152849706972	327
0	3985	47.193374364331	328
0	3993	47.336245631722	327
0	3995	47.347497756415	328
0	3997	47.397753538844	329
0	4003	47.437514648909	329
0	4008	47.53849387407	329
0	4010	47.575155141004	330
0	4018	47.716000727502	329
0	4023	47.737446319291	329
0	4026	47.806914244638	330
0	4028	47.808160649424	331
0	4034	47.868288516659	331
0	4036	47.8763456456	332
0	4047	48.048392847979	330
0	4049	48.055462503616	331
0	4062	48.314718974768	329
0	4067	48.37625491732	329
0	4069	48.406312649639	330
0	4074	48.468046643442	330
0	4077	48.471721962313	331
0	4082	48.519027049376	331
0	4084	48.536348715751	332
0	4089	48.592071627337	332
0	4091	48.600336277953	333
0	4093	48.630002806366	334
0	4095	48.657022941246	335
0	4101	48.716572013916	335
0	4103	48.723609271687	336
0	4105	48.747376255169	337
0	4110	48.793708185184	337
0	4112	48.79897799168	338
0	4114	48.823106752438	339
0	4123	48.984372556624	338
0	4129	49.097246396162	338
0	4131	49.10100598662	339
0	4140	49.272787156244	338
0	4142	49.273761620892	339
0	4144	49.313342075622	340
0	4157	49.507887580142	338
0	4159	49.523954595285	339
0	4161	49.531991097313	340
0	4163	49.576843748018	341
0	4165	49.591811398165	342
0	4173	49.705346903535	341
0	4175	49.717484175403	342
0	4177	49.743589740624	343
0	4182	49.786954341566	343
0	4185	49.827111180162	344
0	4196	50.013081595707	342
0	4198	50.028930464701	343
0	4200	50.044872517122	344
0	4205	50.075261755328	344
0	4213	50.250714932878	343
0	4215	50.276399213541	344
0	4217	50.277690615762	345
0	4219	50.291969061787	346
0	4227	50.401451397515	345
0	4229	50.436698863584	346
0	4234	50.498353299945	346
0	4236	50.516934087686	347
0	4238	50.533204923544	348
0	4243	50.556548140722	348
0	4248	50.669172784226	348
0	4250	50.706391697296	349
0	4252	50.707735728272	350
0	4257	50.777169591965	350
0	4262	50.826296009101	350
0	4264	50.846582326294	351
0	4266	50.866572089918	352
0	4275	50.995527746457	351
0	4280	51.166273991579	351
0	4285	51.265414620593	351
0	4290	51.274645414238	351
0	4292	51.277141194359	352
0	4297	51.393017497487	352
0	4299	51.407645027547	353
0	4301	51.42766410412	354
0	4303	51.45720586514	355
0	4313	51.567222331162	354
0	4315	51.572748124992	355
0	4317	51.608666416753	356
0	4319	51.630088468193	357
0	4324	51.665820177562	357
0	4329	51.733192618747	357
0	4331	51.757648039278	358
0	4336	51.814700205991	358
0	4338	51.852460796879	359
0	4343	51.901154726453	359
0	4351	52.045910607304	358
0	4357	52.107895511335	358
0	4362	52.21957750389	358
0	4364	52.231043362472	359
0	4369	52.287566222388	359
0	4371	52.308470805335	360
0	4376	52.359418464389	360
0	4381	52.415806486068	360
0	4386	52.455550127871	360
0	4391	52.561245468603	360
0	4393	52.577165119406	361
0	4398	52.616392954252	361
0	4400	52.62441715962	362
0	4402	52.641030190799	363
0	4407	52.738032601293	363
0	4409	52.739567689944	364
0	4414	52.789968366968	364
0	4420	52.851920192337	364
0	4422	52.869728481415	365
0	4424	52.87012424874	366
0	4426	52.900953903166	367
0	4431	52.924268754488	367
0	4433	52.925510414875	368
0	4435	52.963318727265	369
0	4440	53.004148361707	369
0	4445	53.131772186384	369
0	4447	53.154176584803	370
0	4452	53.158864354183	370
0	4454	53.193793404487	371
0	4456	53.219832347731	372
0	4458	53.228172135637	373
0	4460	53.229402817841	374
0	4465	53.257116241512	374
0	4467	53.278090207685	375
0	4472	53.396404720877	375
0	4477	53.445078348059	375
0	4479	53.445505748991	376
0	4481	53.461866268057	377
0	4490	53.635335959996	376
0	4492	53.647106253321	377
0	4497	53.705809760161	377
0	4499	53.711957888505	378
0	4501	53.717193502176	379
0	4503	53.760229237552	380
0	4505	53.777337972133	381
0	4510	53.836754430147	381
0	4515	53.875480269544	381
0	4518	53.931210819694	382
0	4524	53.99560533165	382
0	4529	54.144265748624	382
0	4534	54.168887817443	382
0	4536	54.169023161172	383
0	4538	54.181902404489	384
0	4540	54.23399462773	385
0	4545	54.264330248192	385
0	4547	54.310193838038	386
0	4555	54.48911892433	385
0	4560	54.533545359946	385
0	4565	54.623279015646	385
0	4575	54.787811457159	384
0	4582	54.910943670629	384
0	4584	54.911794451815	385
0	4590	54.966817878339	385
0	4592	55.02643366705	386
0	4597	55.055484099823	386
0	4601	55.139498219827	387
0	4606	55.197271956264	387
0	4608	55.23291978022	388
0	4613	55.285211044859	388
0	4615	55.305531688196	389
0	4617	55.307008278754	390
0	4622	55.385241106289	390
0	4627	55.511235540981	390
0	4629	55.516350630031	391
0	4634	55.555444851186	391
0	4636	55.584617859801	392
0	4650	55.820937619644	390
0	4652	55.857631117995	391
0	4654	55.881783769208	392
0	4659	55.940985156025	392
0	4666	56.023152817785	392
0	4668	56.027917041929	393
0	4673	56.058819660786	393
0	4675	56.071742623222	394
0	4680	56.159415029136	394
0	4682	56.185822228672	395
0	4688	56.22455291549	395
0	4691	56.273367516638	396
0	4700	56.382503211102	395
0	4706	56.49150423346	395
0	4711	56.597561956302	395
0	4717	56.64578694439	395
0	4720	56.665684364122	396
0	4722	56.672846799311	397
0	4724	56.698758191716	398
0	4733	56.895831125947	397
0	4738	56.93516528172	397
0	4744	57.037867905913	397
0	4746	57.086470354337	398
0	4752	57.121400532684	398
0	4754	57.145250420231	399
0	4760	57.273026306064	399
0	4762	57.312084745563	400
0	4767	57.351061497005	400
0	4769	57.357505429307	401
0	4775	57.485902060742	401
0	4780	57.542982836918	401
0	4785	57.631550502884	401
0	4787	57.648472559525	402
0	4792	57.821023065993	402
0	4794	57.823219427699	403
0	4802	57.949370300767	402
0	4804	57.955540774342	403
0	4806	57.957375727856	404
0	4808	57.963002225175	405
0	4810	57.972607003982	406
0	4812	57.99163255141	407
0	4814	58.016276489828	408
0	4820	58.03043011162	408
0	4825	58.182406691127	408
0	4830	58.223772987307	408
0	4832	58.241608799941	409
0	4838	58.360020602591	409
0	4841	58.368766115596	410
0	4846	58.412153872743	410
0	4851	58.5208655181	410
0	4856	58.566422808504	410
0	4858	58.595987947782	411
0	4860	58.609581239711	412
0	4868	58.728812006873	411
0	4870	58.772292774915	412
0	4872	58.781024164739	413
0	4874	58.78890776738	414
0	4879	58.843012861604	414
0	4881	58.863458738066	415
0	4886	58.892473217465	415
0	4888	58.941585126685	416
0	4890	58.94556363444	417
0	4895	58.967980099771	417
0	4897	59.027592711875	418
0	4905	59.148545281583	417
0	4907	59.162756268759	418
0	4915	59.268145286679	417
0	4917	59.270166365562	418
0	4920	59.298638171256	419
0	4922	59.301728978688	420
0	4927	59.338179314757	420
0	4929	59.34133048697	421
0	4931	59.373516727263	422
0	4940	59.492670140923	421
0	4943	59.502859410033	422
0	4948	59.57019077446	422
0	4950	59.598716073864	423
0	4958	59.712885775585	422
0	4960	59.723270939896	423
0	4966	59.779096868574	423
0	4968	59.841896648513	424
0	4973	59.879535131115	424
0	4976	59.916547740686	425
0	4981	59.934700098406	425
0	4984	59.954024807508	426
0	5000	60.263820313444	423
0	5002	60.263975531284	424
0	5004	60.286461199681	425
0	5010	60.331939734925	425
0	5012	60.363744907643	426
0	5017	60.416104520418	426
0	5019	60.439864992357	427
0	5021	60.440125148997	428
0	5029	60.634557385135	427
0	5038	60.810256326283	426
0	5043	60.819854221381	426
0	5045	60.874366500704	427
0	5050	60.8942404547	427
0	5052	60.911586898858	428
0	5057	60.968613122606	428
0	5059	60.979793075523	429
0	5061	60.983057755305	430
0	5067	61.113041417572	430
0	5072	61.159770438389	430
0	5074	61.178269397377	431
0	5079	61.210739933717	431
0	5081	61.236550106464	432
0	5083	61.253253860617	433
0	5088	61.303381981033	433
0	5090	61.316999542351	434
0	5098	61.427660903928	433
0	5100	61.463791015805	434
0	5102	61.492126113797	435
0	5107	61.515063678929	435
0	5118	61.646770248726	434
0	5121	61.677258357369	435
0	5126	61.722092649198	435
0	5128	61.742677678092	436
0	5130	61.770940442158	437
0	5145	61.947098009219	435
0	5147	61.992018127541	436
0	5149	61.999179291115	437
0	5155	62.021066263921	437
0	5157	62.02615704602	438
0	5160	62.079661170501	439
0	5165	62.100694554121	439
0	5168	62.15351660383	440
0	5173	62.198221898236	440
0	5179	62.284441492509	440
0	5184	62.33826101548	440
0	5186	62.36403339298	441
0	5191	62.389346591334	441
0	5193	62.391261031223	442
0	5212	62.752934453863	438
0	5224	62.961706634074	436
0	5226	62.983391607594	437
0	5228	63.013114908429	438
0	5233	63.077015014887	438
0	5244	63.215752745966	437
0	5250	63.266500693884	437
0	5255	63.322244036588	437
0	5262	63.406090773238	437
0	5264	63.421600579401	438
0	5277	63.608558003303	436
0	5279	63.650071035641	437
0	5287	63.760341075831	436
0	5296	63.917590953466	435
0	5301	63.989906332074	435
0	5303	63.995929245462	436
0	5308	64.055836814854	436
0	5310	64.071725281923	437
0	5312	64.092161164635	438