version 3
run monitoring-exponential-1-20230106-17:25:37-1830
attr configname monitoring-exponential
attr datetime 20230106-17:25:37
attr datetimef 20230106-172537
attr experiment monitoring-exponential
attr inifile omnetpp.ini
attr iterationvars ""
attr iterationvarsd ""
attr iterationvarsf ""
attr measurement ""
attr network AerocomSys
attr processid 1830
attr repetition 1
attr replication #1
attr resultdir results
attr runnumber 1
attr seedset 1
config description "aircraft in monitoring mode, new capacity selected with exponential distrbution"
config **.X 0.1
config **.exponentialMean 1
config **.generationMode 1
config **.operationMode 0
config network AerocomSys
config repeat 10
config seed-set 1
config num-rngs 3
config **.size 100
config **.minCapacity 6000
config **.maxCapacity 15000
config sim-time-limit 300s
config warmup-period 10s
config rng-class omnetpp::cMersenneTwister
config **.nDL 15
config **.nAC 1
config **.kMean 0.05+1*0.001
config **.PacketGenerator.rng-0 0
config **.LinkSelector.rng-1 1
config **.DataLink[*].rng-2 2

vector 0 AerocomSys.airCraft[0].linkSelector queueLengthStatistic:vector ETV
attr recordingmode vector
attr source queueLength
attr title "queue length statistic"
vector 1 AerocomSys.controlTower responseTimeStatistic:vector ETV
attr recordingmode vector
attr source responseTime
attr title "response time statistic"
vector 2 AerocomSys.airCraft[0].linkSelector serviceTimeStatistic:vector ETV
attr recordingmode vector
attr source serviceTime
attr title "service time statistic"
vector 3 AerocomSys.airCraft[0].linkSelector waitingTimeStatistic:vector ETV
attr recordingmode vector
attr source waitingTime
attr title "waiting time statistic"
0	1201	10.004714065449	0
0	1205	10.030913904973	1
0	1206	10.038915379528	0
0	1210	10.040562110727	1
0	1211	10.048556089076	0
0	1218	10.174702592382	1
0	1219	10.182420965968	0
0	1223	10.192777074329	1
0	1224	10.200504369959	0
0	1229	10.271794928114	1
0	1230	10.279561472488	0
0	1234	10.287761920487	1
0	1235	10.295536444255	0
0	1239	10.321614259496	1
0	1240	10.329395873553	0
0	1249	10.432767042776	1
0	1250	10.440519403607	0
0	1254	10.463748634911	1
0	1255	10.471543202782	0
0	1259	10.499432266321	1
0	1260	10.507276020043	0
0	1264	10.511972265699	1
0	1265	10.51977854433	0
0	1269	10.555280824336	1
0	1270	10.562884472144	0
0	1274	10.565228802159	1
0	1275	10.572787382539	0
0	1280	10.586607401431	1
0	1282	10.590507612011	2
0	1283	10.594117204877	1
0	1287	10.601640653899	0
0	1291	10.638483338965	1
0	1292	10.646088425633	0
0	1296	10.752176178552	1
0	1298	10.758731472312	2
0	1299	10.759998788989	1
0	1302	10.76783682454	0
0	1306	10.810860713686	1
0	1308	10.812885191712	2
0	1309	10.818706724163	1
0	1313	10.820775156932	2
0	1314	10.826549597719	1
0	1317	10.834389338114	0
0	1332	11.362158652357	1
0	1333	11.369856051443	0
0	1338	11.389425909557	1
0	1339	11.397135919621	0
0	1343	11.40533298267	1
0	1345	11.407901126449	2
0	1346	11.413050368783	1
0	1349	11.420771338505	0
0	1353	11.423065315286	1
0	1354	11.430790940467	0
0	1358	11.435046715683	1
0	1359	11.442777917812	0
0	1363	11.451563085763	1
0	1364	11.459301988932	0
0	1368	11.518473017965	1
0	1369	11.526243276641	0
0	1373	11.533263364083	1
0	1374	11.54104058817	0
0	1378	11.586968158362	1
0	1379	11.594770779691	0
0	1385	11.703258747937	1
0	1387	11.711116936128	0
0	1391	11.736508890736	1
0	1393	11.74438311256	0
0	1399	11.828477380034	1
0	1400	11.836979641544	0
0	1404	11.844862707329	1
0	1406	11.852930623646	2
0	1407	11.853381877778	1
0	1410	11.861909866239	0
0	1415	11.906796526227	1
0	1417	11.915380221815	0
0	1425	12.181744112194	1
0	1426	12.190388669151	0
0	1434	12.341569664717	1
0	1435	12.350138905856	0
0	1439	12.363991099468	1
0	1440	12.372549879623	0
0	1444	12.393155515955	1
0	1445	12.401700727266	0
0	1449	12.433555259582	1
0	1451	12.437263631999	2
0	1452	12.442081745697	1
0	1455	12.450604290286	0
0	1459	12.471786082959	1
0	1461	12.47481879797	2
0	1462	12.480294924586	1
0	1466	12.48190114157	2
0	1468	12.486313006554	3
0	1469	12.488799849099	2
0	1473	12.497300861903	1
0	1476	12.505797968392	0
0	1480	12.586604241722	1
0	1481	12.595060528162	0
0	1485	12.750394936505	1
0	1486	12.758777365602	0
0	1491	12.762961820691	1
0	1493	12.771338636319	0
0	1497	12.802649212282	1
0	1499	12.811008349312	0
0	1504	12.891346167343	1
0	1505	12.899666063115	0
0	1512	12.984005318024	1
0	1513	12.992284611149	0
0	1525	13.308735028585	1
0	1526	13.316875102706	0
0	1530	13.318239898027	1
0	1531	13.326375967687	0
0	1539	13.560180864829	1
0	1540	13.568393769022	0
0	1545	13.575561012227	1
0	1546	13.583793899577	0
0	1550	13.584311751711	1
0	1551	13.592556052208	0
0	1555	13.644368457995	1
0	1556	13.65269194944	0
0	1560	13.676811375179	1
0	1562	13.685178282148	0
0	1569	13.792032688755	1
0	1570	13.80055751605	0
0	1574	13.854714568942	1
0	1575	13.863252423038	0
0	1579	13.875959085372	1
0	1580	13.884313790884	0
0	1584	13.897150830869	1
0	1586	13.900560654396	2
0	1587	13.905330507053	1
0	1590	13.913444570605	0
0	1595	13.96141373663	1
0	1596	13.969235988959	0
0	1603	14.063208752562	1
0	1604	14.071266080861	0
0	1610	14.133585969843	1
0	1611	14.141639581425	0
0	1615	14.151115682759	1
0	1616	14.159106496472	0
0	1621	14.237737263838	1
0	1622	14.245622297026	0
0	1627	14.306650780184	1
0	1628	14.314518929051	0
0	1632	14.402635186359	1
0	1633	14.410479938475	0
0	1637	14.411407963741	1
0	1639	14.415747590643	2
0	1640	14.41925058438	1
0	1643	14.427091300518	0
0	1647	14.476301096058	1
0	1648	14.484127985844	0
0	1653	14.495054427823	1
0	1655	14.50287678333	0
0	1659	14.588970605069	1
0	1660	14.596770331833	0
0	1664	14.630955058869	1
0	1665	14.638744711931	0
0	1673	14.697195933537	1
0	1674	14.704969745646	0
0	1680	14.825919186899	1
0	1681	14.833662399438	0
0	1685	14.848608759895	1
0	1687	14.853692910171	2
0	1688	14.856346603717	1
0	1691	14.864082618343	0
0	1695	14.919847442805	1
0	1696	14.927568478686	0
0	1700	14.946403444397	1
0	1702	14.954063820947	2
0	1703	14.954118233366	1
0	1706	14.961831209438	0
0	1710	14.993496743182	1
0	1711	15.001200478961	0
0	1715	15.012704057229	1
0	1716	15.02040329398	0
0	1721	15.066182841136	1
0	1722	15.073869578913	0
0	1726	15.093927252048	1
0	1727	15.101607521421	0
0	1731	15.112848664181	1
0	1732	15.120524528408	0
0	1737	15.2198107742	1
0	1738	15.227461830997	0
0	1742	15.313705779496	1
0	1743	15.32133519127	0
0	1747	15.322219152478	1
0	1748	15.329846607772	0
0	1752	15.357230613532	1
0	1753	15.364850033289	0
0	1759	15.465417116783	1
0	1760	15.473011813123	0
0	1765	15.527459474587	1
0	1766	15.535040064897	0
0	1771	15.609277390106	1
0	1772	15.616839458108	0
0	1776	15.667210833208	1
0	1777	15.674759840618	0
0	1782	15.848884153458	1
0	1783	15.856392474119	0
0	1787	15.898689797635	1
0	1788	15.906185889684	0
0	1793	15.922067995236	1
0	1795	15.92955836104	0
0	1807	16.234440453838	1
0	1808	16.241896152508	0
0	1813	16.246136661512	1
0	1814	16.253606138698	0
0	1818	16.255007266225	1
0	1819	16.26248722728	0
0	1823	16.26904183084	1
0	1824	16.276538439122	0
0	1829	16.356366972461	1
0	1830	16.363968850551	0
0	1834	16.446099609464	1
0	1837	16.453812784521	0
0	1841	16.46447237557	1
0	1842	16.472214428836	0
0	1850	16.635778677223	1
0	1852	16.64148873675	2
0	1853	16.643465967425	1
0	1856	16.651195461174	0
0	1861	16.702689450331	1
0	1862	16.710760306698	0
0	1866	16.719891666562	1
0	1867	16.728067400378	0
0	1871	16.753487408156	1
0	1872	16.761743329074	0
0	1877	16.817256875373	1
0	1878	16.825597877854	0
0	1882	16.834512401896	1
0	1883	16.842876729094	0
0	1887	16.848403856177	1
0	1888	16.856776167783	0
0	1893	16.939892197256	1
0	1894	16.947826976597	0
0	1898	17.000899509175	1
0	1899	17.008567086932	0
0	1905	17.10581306036	1
0	1907	17.107131887855	2
0	1909	17.112061335405	3
0	1910	17.113467615137	2
0	1913	17.121132269935	1
0	1916	17.128807064822	0
0	1920	17.246601461914	1
0	1921	17.254446147346	0
0	1925	17.259008834103	1
0	1926	17.266870729199	0
0	1930	17.282015208424	1
0	1931	17.289909215177	0
0	1936	17.372916089928	1
0	1937	17.380918753676	0
0	1943	17.455012043979	1
0	1944	17.46290514442	0
0	1949	17.551191723785	1
0	1950	17.559024689337	0
0	1954	17.616032129392	1
0	1955	17.623916164103	0
0	1959	17.635301458948	1
0	1960	17.643200799042	0
0	1965	17.682350821667	1
0	1966	17.690247644972	0
0	1970	17.699054587793	1
0	1972	17.706945057472	0
0	1976	17.712481052251	1
0	1977	17.720366422302	0
0	1981	17.741222091988	1
0	1982	17.749096567768	0
0	1986	17.77112062141	1
0	1987	17.778983796073	0
0	1992	17.810662260429	1
0	1993	17.818510538774	0
0	1998	17.863203967174	1
0	2000	17.868326756354	2
0	2001	17.871032538857	1
0	2004	17.878858182769	0
0	2010	17.94610293655	1
0	2011	17.953900616021	0
0	2016	18.038589711117	1
0	2017	18.046353211964	0
0	2022	18.119104724563	1
0	2024	18.126838713997	0
0	2028	18.158127265703	1
0	2029	18.165847032659	0
0	2033	18.182583555993	1
0	2034	18.190294436042	0
0	2039	18.258650660656	1
0	2040	18.266334029824	0
0	2046	18.285380191518	1
0	2047	18.293053940077	0
0	2052	18.298765213756	1
0	2055	18.304460300803	2
0	2056	18.306434153767	1
0	2059	18.314100341438	0
0	2067	18.475862326136	1
0	2068	18.483463201912	0
0	2073	18.505342324694	1
0	2074	18.512937809095	0
0	2081	18.576253339606	1
0	2082	18.583925102967	0
0	2088	18.674465552158	1
0	2089	18.682339321389	0
0	2094	18.695896472789	1
0	2096	18.703815743899	0
0	2103	18.873769630661	1
0	2105	18.882191695123	0
0	2109	19.025071864735	1
0	2111	19.033802737796	0
0	2118	19.090020667785	1
0	2119	19.097698075756	0
0	2123	19.151510357876	1
0	2124	19.159573303477	0
0	2128	19.178427523369	1
0	2129	19.186671697398	0
0	2133	19.272068340318	1
0	2135	19.279711496384	2
0	2136	19.280851713543	1
0	2140	19.282086301938	2
0	2142	19.283225824693	3
0	2144	19.28614554749	4
0	2145	19.28963696534	3
0	2148	19.298424096914	2
0	2152	19.298972688717	3
0	2153	19.307213109473	2
0	2157	19.316004004225	1
0	2160	19.324796782379	0
0	2164	19.368213217711	1
0	2165	19.377017198063	0
0	2170	19.390715189092	1
0	2171	19.399524006355	0
0	2175	19.40924819907	1
0	2176	19.41806100409	0
0	2182	19.487111999151	1
0	2183	19.495941597686	0
0	2187	19.524203905462	1
0	2188	19.533041526435	0
0	2192	19.554638096993	1
0	2194	19.56330369901	2
0	2195	19.563482311333	1
0	2198	19.57232844356	0
0	2202	19.596353910043	1
0	2203	19.605207177841	0
0	2208	19.790896067495	1
0	2209	19.799791802142	0
0	2215	19.827935375623	1
0	2217	19.836839241837	0
0	2221	19.863567263506	1
0	2222	19.872478966344	0
0	2226	19.887008193939	1
0	2228	19.895925059736	0
0	2238	19.977079193062	1
0	2239	19.986015953138	0
0	2243	19.992603117964	1
0	2245	19.99652613286	2
0	2246	20.001543315833	1
0	2250	20.01048549472	0
0	2255	20.079333745704	1
0	2256	20.08829319895	0
0	2260	20.112577736592	1
0	2261	20.121544592463	0
0	2267	20.230404209813	1
0	2269	20.233683679453	2
0	2270	20.239397401562	1
0	2273	20.248392609772	0
0	2277	20.256530758219	1
0	2278	20.265529810588	0
0	2283	20.366499433584	1
0	2285	20.375523237727	0
0	2289	20.476390292859	1
0	2291	20.485241468313	0
0	2295	20.506492941516	1
0	2296	20.515275859779	0
0	2300	20.525131746243	1
0	2302	20.528753393126	2
0	2303	20.533872926579	1
0	2306	20.542594669105	0
0	2310	20.545769108437	1
0	2312	20.549827711488	2
0	2313	20.554464535822	1
0	2317	20.562036743133	2
0	2318	20.563140828582	1
0	2321	20.571798112574	0
0	2325	20.601506029725	1
0	2326	20.610080248802	0
0	2330	20.629310554308	1
0	2332	20.633317831225	2
0	2333	20.637825562842	1
0	2338	20.640175809605	2
0	2339	20.646322601641	1
0	2343	20.650531968463	2
0	2344	20.654801784073	1
0	2347	20.66326322232	0
0	2356	20.903032147726	1
0	2357	20.911082107846	0
0	2361	20.932272200114	1
0	2362	20.940278269719	0
0	2366	20.96125747546	1
0	2367	20.96922050681	0
0	2371	20.996382330519	1
0	2372	21.004293823479	0
0	2376	21.045288836593	1
0	2377	21.053129670667	0
0	2381	21.089935119941	1
0	2382	21.097712543285	0
0	2388	21.287147959814	1
0	2389	21.294673783726	0
0	2394	21.336563598934	1
0	2395	21.344159922099	0
0	2399	21.354272133748	1
0	2400	21.361894043507	0
0	2404	21.378064049436	1
0	2405	21.385720608095	0
0	2409	21.408955131608	1
0	2410	21.41665715074	0
0	2414	21.458132634413	1
0	2415	21.465908149399	0
0	2419	21.48402662404	1
0	2420	21.491841404199	0
0	2424	21.492751631642	1
0	2425	21.500579731719	0
0	2429	21.572003174316	1
0	2430	21.579954374779	0
0	2434	21.588439720218	1
0	2435	21.596416937686	0
0	2440	21.637445969445	1
0	2441	21.645501778248	0
0	2445	21.719201505132	1
0	2446	21.727344109341	0
0	2450	21.764863183474	1
0	2451	21.772981147015	0
0	2455	21.773337344678	1
0	2457	21.780125403899	2
0	2458	21.781450751657	1
0	2461	21.789559800842	0
0	2465	21.793014668979	1
0	2467	21.794616966631	2
0	2468	21.801117515151	1
0	2472	21.808813490139	2
0	2473	21.809216020518	1
0	2476	21.81731019205	0
0	2480	21.822282267067	1
0	2481	21.830369456098	0
0	2485	21.855584218385	1
0	2487	21.856238932979	2
0	2489	21.856276968691	3
0	2490	21.86365366547	2
0	2494	21.871718825187	1
0	2498	21.872652237754	2
0	2500	21.874222030317	3
0	2501	21.879779704364	2
0	2504	21.887836309811	1
0	2507	21.895888648319	0
0	2513	22.01935971051	1
0	2514	22.027051130871	0
0	2518	22.05093162814	1
0	2519	22.058769162559	0
0	2523	22.067456908614	1
0	2524	22.075373157173	0
0	2528	22.07650220343	1
0	2530	22.080521718349	2
0	2531	22.084455897074	1
0	2534	22.092405485157	0
0	2540	22.138553529149	1
0	2541	22.146475305013	0
0	2545	22.154908742548	1
0	2546	22.162822148278	0
0	2551	22.235781675056	1
0	2552	22.243678501386	0
0	2560	22.453581352547	1
0	2561	22.461485583474	0
0	2566	22.497601347452	1
0	2567	22.505507076626	0
0	2571	22.525613724828	1
0	2572	22.533204917248	0
0	2578	22.586134059047	1
0	2579	22.593671124859	0
0	2583	22.652940202291	1
0	2584	22.660621283688	0
0	2588	22.678229474167	1
0	2589	22.685966518721	0
0	2593	22.726934686312	1
0	2595	22.729352195646	2
0	2596	22.734781841997	1
0	2601	22.73951925917	2
0	2602	22.742647032102	1
0	2605	22.750530381446	0
0	2609	22.769037347307	1
0	2610	22.776952327535	0
0	2614	22.838494843701	1
0	2615	22.846412194652	0
0	2619	22.862219215413	1
0	2620	22.87013737645	0
0	2624	22.885418559854	1
0	2625	22.893337513209	0
0	2630	22.931768724585	1
0	2631	22.939689261395	0
0	2636	23.008244089832	1
0	2638	23.015594328613	2
0	2639	23.016167240645	1
0	2642	23.024090662378	0
0	2647	23.096000751836	1
0	2648	23.103926904385	0
0	2652	23.109179095959	1
0	2653	23.117105699472	0
0	2658	23.160482619483	1
0	2659	23.168410979098	0
0	2664	23.246480043616	1
0	2665	23.254411348639	0
0	2669	23.319399403088	1
0	2670	23.32733320731	0
0	2674	23.335054748069	1
0	2675	23.34298908906	0
0	2680	23.386883863189	1
0	2681	23.394819981742	0
0	2685	23.41382081946	1
0	2686	23.421757862173	0
0	2691	23.468115372793	1
0	2692	23.476054278913	0
0	2699	23.608285689956	1
0	2701	23.608310115396	2
0	2702	23.616242603235	1
0	2705	23.624202721952	0
0	2709	23.624749757842	1
0	2710	23.632713306521	0
0	2715	23.663414922487	1
0	2716	23.671394097719	0
0	2720	23.6714215655	1
0	2721	23.67940398429	0
0	2725	23.681451766848	1
0	2726	23.68943825268	0
0	2730	23.743198962671	1
0	2731	23.751210577301	0
0	2737	23.8179607035	1
0	2738	23.826002955808	0
0	2742	23.860656437712	1
0	2744	23.861948968407	2
0	2745	23.868716292266	1
0	2748	23.87677642797	0
0	2754	23.910179855762	1
0	2756	23.913654972293	2
0	2759	23.915844897407	3
0	2760	23.91790679277	2
0	2763	23.925597358536	1
0	2766	23.933283937052	0
0	2770	23.935985661561	1
0	2771	23.943666860718	0
0	2776	23.963526987369	1
0	2777	23.971193961219	0
0	2782	24.008248988669	1
0	2784	24.00846704263	2
0	2786	24.013873176496	3
0	2787	24.016099288924	2
0	2790	24.02400082456	1
0	2794	24.028309916443	2
0	2795	24.031954609774	1
0	2798	24.03993981311	0
0	2802	24.063856981972	1
0	2803	24.071820040835	0
0	2807	24.126299679861	1
0	2808	24.134219748768	0
0	2812	24.208635687867	1
0	2814	24.211874994246	2
0	2817	24.215596380738	3
0	2818	24.216499775398	2
0	2821	24.224358557404	1
0	2824	24.232212044611	0
0	2828	24.233401643981	1
0	2829	24.241249047294	0
0	2836	24.326514952167	1
0	2837	24.334108060806	0
0	2844	24.552561681134	1
0	2845	24.560939131689	0
0	2852	24.612337467501	1
0	2853	24.620706179006	0
0	2861	24.793293233952	1
0	2863	24.800054257767	2
0	2864	24.801635601028	1
0	2867	24.80997675758	0
0	2872	24.833585917963	1
0	2873	24.841922441594	0
0	2877	24.872483657955	1
0	2878	24.880786321086	0
0	2884	24.940346575323	1
0	2885	24.948615013854	0
0	2889	25.035245775907	1
0	2890	25.043553176408	0
0	2894	25.08632002747	1
0	2895	25.094620084241	0
0	2900	25.135311673085	1
0	2901	25.143604697764	0
0	2905	25.167277699327	1
0	2906	25.175566142134	0
0	2911	25.432817107123	1
0	2912	25.441067683472	0
0	2916	25.532031248	1
0	2918	25.540267764847	0
0	2922	25.552775007296	1
0	2923	25.561008590628	0
0	2927	25.562432786729	1
0	2928	25.570661175608	0
0	2933	25.657275839731	1
0	2934	25.665278941069	0
0	2940	25.747177372513	1
0	2941	25.755318906412	0
0	2946	25.773765850726	1
0	2948	25.775957834378	2
0	2949	25.781892446891	1
0	2952	25.790014488365	0
0	2956	25.875012277729	1
0	2957	25.883082490695	0
0	2962	25.977882236744	1
0	2963	25.985895958077	0
0	2967	26.059035205384	1
0	2968	26.067004916092	0
0	2973	26.116512268394	1
0	2976	26.122212048518	2
0	2977	26.124451099618	1
0	2980	26.132385684513	0
0	2984	26.152324262531	1
0	2985	26.160243974508	0
0	2991	26.216410712217	1
0	2992	26.224362833269	0
0	2996	26.273195760063	1
0	2997	26.281229789782	0
0	3003	26.363526584868	1
0	3004	26.371694445731	0
0	3008	26.394986892821	1
0	3009	26.403202417196	0
0	3013	26.446355969649	1
0	3014	26.454650527253	0
0	3018	26.52357723103	1
0	3019	26.531993499442	0
0	3023	26.544794216397	1
0	3025	26.550935181611	2
0	3026	26.553244553602	1
0	3029	26.561708536711	0
0	3033	26.561762818098	1
0	3034	26.570215199276	0
0	3039	26.597952244503	1
0	3040	26.60609273522	0
0	3045	26.640567339962	1
0	3046	26.648731116672	0
0	3051	26.745206335914	1
0	3053	26.7466039377	2
0	3054	26.753427859243	1
0	3057	26.76165395438	0
0	3063	26.880457140829	1
0	3066	26.883233061063	2
0	3067	26.888754525932	1
0	3071	26.895926586006	2
0	3072	26.897056610617	1
0	3075	26.905363402877	0
0	3081	26.982335064974	1
0	3082	26.99069052401	0
0	3086	26.997138280348	1
0	3087	27.005502245438	0
0	3092	27.085517503921	1
0	3093	27.093908182161	0
0	3101	27.205037892503	1
0	3103	27.206225791755	2
0	3104	27.213523174623	1
0	3107	27.22201348301	0
0	3111	27.227845211199	1
0	3113	27.236344016784	0
0	3117	27.238400369841	1
0	3119	27.241386617484	2
0	3120	27.246905448647	1
0	3123	27.255415588997	0
0	3127	27.298602080926	1
0	3128	27.307143117053	0
0	3134	27.362600375428	1
0	3135	27.37117997141	0
0	3143	27.484483532145	1
0	3144	27.492655012018	0
0	3148	27.511776208875	1
0	3149	27.519935877905	0
0	3154	27.575958905731	1
0	3155	27.584090933945	0
0	3159	27.643750631965	1
0	3160	27.651853667736	0
0	3164	27.723112084534	1
0	3165	27.731181441414	0
0	3170	27.756177886001	1
0	3173	27.760908090297	2
0	3174	27.764233293114	1
0	3177	27.772285309123	0
0	3181	27.796316315379	1
0	3182	27.804354853605	0
0	3186	27.825120402579	1
0	3187	27.833146878853	0
0	3192	27.852687553911	1
0	3193	27.860702520061	0
0	3198	27.978037470612	1
0	3199	27.986000512987	0
0	3203	27.995539318485	1
0	3204	28.003495164535	0
0	3210	28.069212758739	1
0	3211	28.077138454173	0
0	3216	28.187008438507	1
0	3217	28.194886398384	0
0	3221	28.198749554254	1
0	3222	28.206622787652	0
0	3226	28.255104317396	1
0	3227	28.262954943451	0
0	3231	28.268552213388	1
0	3232	28.276397463843	0
0	3237	28.347862459821	1
0	3238	28.355676156297	0
0	3242	28.463494999292	1
0	3243	28.471263142941	0
0	3247	28.578799010606	1
0	3248	28.586522256666	0
0	3255	28.64811220637	1
0	3256	28.655966061843	0
0	3261	28.662796841602	1
0	3262	28.670641135623	0
0	3266	28.690421896089	1
0	3267	28.698248265848	0
0	3271	28.819119823536	1
0	3272	28.826863757193	0
0	3278	29.007137735804	1
0	3279	29.014764311025	0
0	3285	29.108367427019	1
0	3286	29.116483178399	0
0	3296	29.292736885248	1
0	3297	29.301202738195	0
0	3302	29.328711896445	1
0	3304	29.331688820468	2
0	3305	29.336524689491	1
0	3308	29.344208752878	0
0	3313	29.374483086972	1
0	3314	29.38217052798	0
0	3318	29.414071881906	1
0	3320	29.420298526131	2
0	3321	29.422013209127	1
0	3324	29.430007497564	0
0	3328	29.521768768933	1
0	3329	29.529886225047	0
0	3334	29.595003313325	1
0	3335	29.602987137537	0
0	3341	29.640783486273	1
0	3342	29.648696293952	0
0	3346	29.650484843772	1
0	3347	29.65841329739	0
0	3352	29.766440689461	1
0	3354	29.774561057167	0
0	3359	29.805364800226	1
0	3360	29.813551689633	0
0	3365	29.845899552473	1
0	3367	29.852793496414	2
0	3368	29.854156884617	1
0	3371	29.862428715532	0
0	3375	29.946974592997	1
0	3377	29.95083591917	2
0	3378	29.955380833025	1
0	3381	29.963794774236	0
0	3385	30.001952499963	1
0	3386	30.010409363673	0
0	3390	30.049847513126	1
0	3391	30.058171029672	0
0	3396	30.129730553116	1
0	3397	30.137461608691	0
0	3403	30.164191580609	1
0	3405	30.16646010451	2
0	3407	30.171718505692	1
0	3410	30.179248911612	0
0	3414	30.223750722761	1
0	3415	30.231305279388	0
0	3420	30.23997827301	1
0	3421	30.247540393361	0
0	3427	30.319779175322	1
0	3428	30.32737871265	0
0	3434	30.370326695152	1
0	3437	30.37795012531	0
0	3445	30.577199323979	1
0	3446	30.58492212486	0
0	3452	30.62353700856	1
0	3454	30.628016185217	2
0	3455	30.631065047818	1
0	3458	30.638595264552	0
0	3465	30.835235473161	1
0	3466	30.842825230097	0
0	3471	30.886109688204	1
0	3473	30.893714427908	0
0	3477	30.935044201469	1
0	3478	30.942663408608	0
0	3482	30.978920712822	1
0	3483	30.986552938889	0
0	3488	31.022098055153	1
0	3489	31.029743136198	0
0	3493	31.075732643081	1
0	3494	31.083306314686	0
0	3500	31.138856623186	1
0	3502	31.146536684057	0
0	3508	31.178813319882	1
0	3509	31.186505425053	0
0	3513	31.198592077588	1
0	3514	31.206290158735	0
0	3518	31.240157851423	1
0	3519	31.24786852161	0
0	3523	31.267553432092	1
0	3524	31.275272422124	0
0	3529	31.371040794345	1
0	3530	31.378798365056	0
0	3534	31.414213751513	1
0	3535	31.421988844974	0
0	3540	31.444890312686	1
0	3541	31.452677905128	0
0	3545	31.454949181232	1
0	3546	31.462740880853	0
0	3552	31.493998114465	1
0	3553	31.501805799458	0
0	3557	31.555273804728	1
0	3558	31.563106706655	0
0	3564	31.61516292853	1
0	3567	31.623020634674	0
0	3571	31.645637681724	1
0	3574	31.650419231767	2
0	3575	31.653508069969	1
0	3578	31.661381740139	0
0	3582	31.677539078775	1
0	3583	31.685422786752	0
0	3588	31.706379700422	1
0	3589	31.714275489034	0
0	3595	31.879938089178	1
0	3597	31.88543255858	2
0	3598	31.887907366249	1
0	3602	31.888264083416	2
0	3604	31.895826337444	3
0	3605	31.89588005055	2
0	3608	31.903856146455	1
0	3611	31.911835658347	0
0	3616	31.961194367943	1
0	3618	31.961302886915	2
0	3619	31.969198522923	1
0	3623	31.977206130078	0
0	3627	32.011738313634	1
0	3628	32.019764318195	0
0	3632	32.023741204799	1
0	3633	32.031772415615	0
0	3637	32.050528725254	1
0	3638	32.058571579551	0
0	3642	32.062980856263	1
0	3643	32.071029134513	0
0	3647	32.072152904648	1
0	3648	32.08020518278	0
0	3652	32.109187861554	1
0	3654	32.117256330954	0
0	3658	32.132254268274	1
0	3659	32.140332854996	0
0	3663	32.175321446524	1
0	3666	32.183418991322	0
0	3670	32.190474391444	1
0	3671	32.198578627713	0
0	3676	32.279063978023	1
0	3677	32.287207557449	0
0	3681	32.326739833298	1
0	3682	32.33490474437	0
0	3686	32.360752579757	1
0	3687	32.368932777611	0
0	3694	32.520081274835	1
0	3695	32.528333850663	0
0	3702	32.633331196892	1
0	3703	32.64104229934	0
0	3707	32.742509784066	1
0	3708	32.750700740603	0
0	3712	32.768143776619	1
0	3713	32.776456183373	0
0	3718	32.818235256966	1
0	3719	32.826642531628	0
0	3724	32.887848683467	1
0	3725	32.896358834137	0
0	3729	32.944462562969	1
0	3730	32.952488343562	0
0	3734	32.985499905735	1
0	3735	32.993207687316	0
0	3741	33.101503950913	1
0	3742	33.110241159956	0
0	3747	33.151366703967	1
0	3748	33.160104566278	0
0	3752	33.20976020707	1
0	3753	33.218498834538	0
0	3758	33.225837848712	1
0	3759	33.234576686877	0
0	3764	33.260284662633	1
0	3765	33.269023952255	0
0	3773	33.401764272361	1
0	3774	33.409776962204	0
0	3779	33.472428669126	1
0	3780	33.480536035915	0
0	3784	33.547305638427	1
0	3785	33.555173972226	0
0	3789	33.561290092235	1
0	3790	33.569115336363	0
0	3794	33.569314941945	1
0	3796	33.569820133889	2
0	3797	33.577115671912	1
0	3800	33.584892719125	0
0	3804	33.609139442884	1
0	3806	33.613562493378	2
0	3807	33.616820755342	1
0	3810	33.624479454037	0
0	3818	33.892502721632	1
0	3819	33.900867263088	0
0	3823	33.928384804389	1
0	3825	33.930950127318	2
0	3826	33.93713285931	1
0	3829	33.94588102912	0
0	3833	33.965576631762	1
0	3834	33.974325175147	0
0	3838	33.98397291389	1
0	3839	33.992721698905	0
0	3843	34.035883460971	1
0	3844	34.044632927889	0
0	3849	34.104744013135	1
0	3850	34.113494384777	0
0	3854	34.14837195239	1
0	3856	34.150419962326	2
0	3858	34.154380835973	3
0	3859	34.157122897334	2
0	3862	34.165873957281	1
0	3865	34.174625132235	0
0	3869	34.224407233191	1
0	3870	34.233159177473	0
0	3874	34.250142610477	1
0	3875	34.258894893052	0
0	3879	34.293592486727	1
0	3880	34.302345340514	0
0	3885	34.31849088685	1
0	3886	34.327244067996	0
0	3891	34.385590091488	1
0	3892	34.394344154963	0
0	3896	34.406676836088	1
0	3897	34.415414474303	0
0	3901	34.44749517721	1
0	3903	34.45606144886	0
0	3909	34.485666470225	1
0	3910	34.494078460914	0
0	3915	34.628645878243	1
0	3917	34.636526246121	0
0	3921	34.667465374918	1
0	3923	34.675212807882	0
0	3928	34.689153754007	1
0	3929	34.696914409599	0
0	3934	34.728602329212	1
0	3936	34.736131833779	0
0	3940	34.772177675639	1
0	3941	34.780006210379	0
0	3946	34.836740917408	1
0	3948	34.839398765314	2
0	3949	34.844623064467	1
0	3953	34.852511807077	0
0	3957	34.866271158224	1
0	3958	34.874178072248	0
0	3963	34.907385596915	1
0	3964	34.915283238996	0
0	3969	34.954218345215	1
0	3970	34.962041938093	0
0	3974	34.981946080452	1
0	3976	34.98379786157	2
0	3977	34.98972648268	1
0	3980	34.997494851158	0
0	3992	35.192087188504	1
0	3993	35.199796134189	0
0	3998	35.219310249624	1
0	3999	35.227041666217	0
0	4005	35.367798057946	1
0	4006	35.375654385067	0
0	4010	35.493207156833	1
0	4012	35.500797191449	2
0	4013	35.501088971508	1
0	4016	35.50895970814	0
0	4020	35.614032587653	1
0	4022	35.616200412532	2
0	4023	35.621747932648	1
0	4026	35.629452886198	0
0	4030	35.71487569204	1
0	4032	35.721434332361	2
0	4033	35.722457388811	1
0	4037	35.730029224395	0
0	4041	35.741724616873	1
0	4042	35.749271507446	0
0	4046	35.752644641024	1
0	4048	35.757244396461	2
0	4049	35.760177466434	1
0	4052	35.767700619963	0
0	4058	35.823301661346	1
0	4059	35.830785054755	0
0	4063	35.84470040452	1
0	4065	35.852205700385	0
0	4071	35.884746325003	1
0	4073	35.885056173498	2
0	4074	35.892222549291	1
0	4077	35.89973839336	0
0	4081	35.924099596822	1
0	4083	35.926767409047	2
0	4084	35.931687293599	1
0	4087	35.939282959745	0
0	4091	35.958623204676	1
0	4092	35.966222993474	0
0	4098	36.117285063262	1
0	4100	36.117627616293	2
0	4101	36.124907345133	1
0	4104	36.132549310942	0
0	4110	36.195291192102	1
0	4111	36.20297880411	0
0	4115	36.220707392627	1
0	4116	36.228375248427	0
0	4121	36.260282733537	1
0	4122	36.267920028466	0
0	4135	36.609531508866	1
0	4136	36.617292082248	0
0	4144	36.920187680831	1
0	4145	36.928111848329	0
0	4150	37.007724974326	1
0	4152	37.015381309179	0
0	4157	37.119730206383	1
0	4158	37.127393487242	0
0	4162	37.163113107177	1
0	4164	37.167520579894	2
0	4165	37.170819556929	1
0	4169	37.178533726037	0
0	4173	37.178675912101	1
0	4174	37.186397966657	0
0	4178	37.191391507034	1
0	4179	37.199126358489	0
0	4186	37.320503804292	1
0	4187	37.328371036482	0
0	4193	37.417636752513	1
0	4194	37.425606602316	0
0	4198	37.445783820278	1
0	4199	37.453783908655	0
0	4206	37.555681853818	1
0	4208	37.563701024218	0
0	4212	37.604938431561	1
0	4213	37.612951249636	0
0	4217	37.638402945543	1
0	4218	37.646411453639	0
0	4222	37.649981765699	1
0	4223	37.657988783609	0
0	4227	37.663126543385	1
0	4228	37.671131870243	0
0	4232	37.683403876877	1
0	4233	37.691406596493	0
0	4239	37.757860758261	1
0	4240	37.765818453381	0
0	4244	37.779436257286	1
0	4246	37.782636067276	2
0	4247	37.787426652176	1
0	4250	37.795416023295	0
0	4254	37.808244023029	1
0	4255	37.816230728149	0
0	4259	37.817691660899	1
0	4261	37.818838280734	2
0	4262	37.825677156685	1
0	4265	37.833661630581	0
0	4269	37.837237468517	1
0	4270	37.845220463525	0
0	4275	37.892308846286	1
0	4277	37.894238895045	2
0	4278	37.900284803632	1
0	4282	37.903741090157	2
0	4283	37.908259742746	1
0	4286	37.916233664018	0
0	4291	38.230406854284	1
0	4292	38.238071975055	0
0	4296	38.277560210582	1
0	4297	38.285180176999	0
0	4301	38.329052897183	1
0	4302	38.336624157679	0
0	4306	38.378343391449	1
0	4307	38.385868608758	0
0	4311	38.406597486734	1
0	4312	38.414096562983	0
0	4317	38.467645144916	1
0	4318	38.475312821691	0
0	4322	38.496006813328	1
0	4323	38.503774200627	0
0	4327	38.513612726817	1
0	4328	38.521443326036	0
0	4333	38.551416736924	1
0	4334	38.559309418688	0
0	4338	38.569029911347	1
0	4339	38.576920391607	0
0	4346	38.637729308115	1
0	4347	38.645611213233	0
0	4353	38.709570995105	1
0	4354	38.717443952771	0
0	4360	38.799027172591	1
0	4361	38.80688901738	0
0	4366	38.824088031983	1
0	4367	38.831943399248	0
0	4371	38.853983805639	1
0	4372	38.861828388916	0
0	4377	38.862420281259	1
0	4378	38.87026182669	0
0	4383	38.896687305692	1
0	4384	38.904516536238	0
0	4389	39.016877512098	1
0	4390	39.024663852767	0
0	4394	39.034199242796	1
0	4396	39.034870869128	2
0	4398	39.036300231459	3
0	4399	39.041979440917	2
0	4402	39.049756883215	1
0	4406	39.057531572617	0
0	4411	39.147266801772	1
0	4413	39.152809614196	2
0	4414	39.155007141305	1
0	4418	39.162744767143	0
0	4422	39.170438984829	1
0	4423	39.178171206074	0
0	4427	39.201948983028	1
0	4428	39.209670192146	0
0	4433	39.226479154511	1
0	4434	39.234191812505	0
0	4439	39.250641417915	1
0	4441	39.258345671533	0
0	4447	39.446241736798	1
0	4448	39.453984753321	0
0	4452	39.495333137851	1
0	4453	39.503120514692	0
0	4457	39.524602030735	1
0	4458	39.532416098432	0
0	4464	39.636626134122	1
0	4465	39.644544071442	0
0	4471	39.700802776833	1
0	4472	39.708757685108	0
0	4476	39.762696944525	1
0	4477	39.770610432401	0
0	4482	39.789812599911	1
0	4484	39.792107265871	2
0	4485	39.797708077199	1
0	4488	39.805598325605	0
0	4492	39.916956538914	1
0	4494	39.924768647364	0
0	4498	39.92560624653	1