version 3
run monitoring-exponential-4-20230106-17:25:37-1856
attr configname monitoring-exponential
attr datetime 20230106-17:25:37
attr datetimef 20230106-172537
attr experiment monitoring-exponential
attr inifile omnetpp.ini
attr iterationvars ""
attr iterationvarsd ""
attr iterationvarsf ""
attr measurement ""
attr network AerocomSys
attr processid 1856
attr repetition 4
attr replication #4
attr resultdir results
attr runnumber 4
attr seedset 4
config description "aircraft in monitoring mode, new capacity selected with exponential distrbution"
config **.X 0.1
config **.exponentialMean 1
config **.generationMode 1
config **.operationMode 0
config network AerocomSys
config repeat 10
config seed-set 4
config num-rngs 3
config **.size 100
config **.minCapacity 6000
config **.maxCapacity 15000
config sim-time-limit 300s
config warmup-period 10s
config rng-class omnetpp::cMersenneTwister
config **.nDL 15
config **.nAC 1
config **.kMean 0.05+4*0.001
config **.PacketGenerator.rng-0 0
config **.LinkSelector.rng-1 1
config **.DataLink[*].rng-2 2

vector 0 AerocomSys.airCraft[0].linkSelector queueLengthStatistic:vector ETV
attr recordingmode vector
attr source queueLength
attr title "queue length statistic"
vector 1 AerocomSys.controlTower responseTimeStatistic:vector ETV
attr recordingmode vector
attr source responseTime
attr title "response time statistic"
vector 2 AerocomSys.airCraft[0].linkSelector serviceTimeStatistic:vector ETV
attr recordingmode vector
attr source serviceTime
attr title "service time statistic"
vector 3 AerocomSys.airCraft[0].linkSelector waitingTimeStatistic:vector ETV
attr recordingmode vector
attr source waitingTime
attr title "waiting time statistic"
0	1081	10.001368326935	0
0	1085	10.098026357332	1
0	1087	10.106383041026	0
0	1091	10.114981828394	1
0	1092	10.1233253581	0
0	1096	10.17803923912	1
0	1098	10.183204414323	2
0	1100	10.183382256899	3
0	1101	10.186334210395	2
0	1104	10.19462283602	1
0	1107	10.20290513054	0
0	1113	10.247623674811	1
0	1114	10.255865713217	0
0	1119	10.37201918632	1
0	1120	10.380168261439	0
0	1126	10.4350559951	1
0	1127	10.443151537849	0
0	1133	10.571354207442	1
0	1135	10.573986448459	2
0	1137	10.574306500384	3
0	1138	10.579358610495	2
0	1141	10.587357311365	1
0	1145	10.595022117876	2
0	1146	10.595350322224	1
0	1150	10.603337655201	0
0	1154	10.65063200094	1
0	1155	10.658580283997	0
0	1161	10.783652378971	1
0	1162	10.791508245551	0
0	1166	10.809922616287	1
0	1167	10.817760485048	0
0	1174	10.922318969787	1
0	1175	10.92988863373	0
0	1181	10.971226863185	1
0	1182	10.978693546363	0
0	1187	11.011495444595	1
0	1188	11.019005291145	0
0	1192	11.06245416811	1
0	1194	11.07001935727	0
0	1198	11.077002430483	1
0	1199	11.084583569457	0
0	1203	11.126430745327	1
0	1204	11.134066580487	0
0	1208	11.134068623351	1
0	1209	11.141712980883	0
0	1213	11.15428510621	1
0	1214	11.161952113455	0
0	1218	11.197052917564	1
0	1220	11.200964400219	2
0	1221	11.204768285196	1
0	1224	11.212492442134	0
0	1230	11.312700941086	1
0	1232	11.320392700539	0
0	1236	11.399809195514	1
0	1239	11.407750291006	0
0	1245	11.456226880614	1
0	1246	11.464248882741	0
0	1257	11.587123303852	1
0	1258	11.594728264785	0
0	1262	11.617547135824	1
0	1263	11.625219614514	0
0	1267	11.629238616081	1
0	1268	11.636937360927	0
0	1272	11.657669693033	1
0	1273	11.665433068037	0
0	1278	11.67044024948	1
0	1279	11.678233009308	0
0	1285	11.753766678732	1
0	1286	11.761756770434	0
0	1290	11.779358170989	1
0	1293	11.787410889648	0
0	1297	11.795836346572	1
0	1298	11.803929912496	0
0	1304	11.82367778916	1
0	1305	11.831841320126	0
0	1309	11.841455627151	1
0	1311	11.849664469814	0
0	1315	11.958331583487	1
0	1317	11.95959074178	2
0	1318	11.966819839186	1
0	1322	11.971786107952	2
0	1323	11.975329130149	1
0	1326	11.983859613412	0
0	1331	12.03205843913	1
0	1332	12.04073294935	0
0	1336	12.06138206153	1
0	1338	12.06972660239	2
0	1339	12.070132943386	1
0	1342	12.078906877619	0
0	1347	12.126103041347	1
0	1349	12.130743985085	2
0	1350	12.135027338996	1
0	1353	12.143976089422	0
0	1357	12.169446243114	1
0	1358	12.178490570542	0
0	1363	12.229499606198	1
0	1364	12.23795739201	0
0	1368	12.251435168343	1
0	1370	12.259652831084	0
0	1375	12.323838207027	1
0	1376	12.332884031802	0
0	1383	12.405227695446	1
0	1384	12.413175513832	0
0	1390	12.454837084816	1
0	1392	12.462695648223	2
0	1393	12.462777410394	1
0	1397	12.465638505856	2
0	1398	12.470810129599	1
0	1402	12.477131613734	2
0	1403	12.478938531444	1
0	1407	12.487166104332	0
0	1411	12.495267244898	1
0	1412	12.503701534223	0
0	1416	12.523085355721	1
0	1417	12.531896805644	0
0	1423	12.597526194176	1
0	1424	12.606262709797	0
0	1429	12.680995785438	1
0	1431	12.689642133592	0
0	1435	12.709940568164	1
0	1436	12.718310505171	0
0	1440	12.725750288763	1
0	1442	12.733691531958	2
0	1443	12.733909418797	1
0	1447	12.739953145473	2
0	1448	12.741963855833	1
0	1451	12.74991754549	0
0	1456	12.777408933	1
0	1457	12.785123506674	0
0	1462	12.921533008459	1
0	1463	12.929803765513	0
0	1467	12.930591336568	1
0	1469	12.937887715321	2
0	1470	12.938899741042	1
0	1474	12.942174620613	2
0	1475	12.947242978779	1
0	1478	12.955613755543	0
0	1483	12.992334310954	1
0	1484	13.00066014728	0
0	1489	13.130334090175	1
0	1490	13.138525338311	0
0	1494	13.148837841643	1
0	1495	13.157011373593	0
0	1499	13.159015455882	1
0	1500	13.16717927603	0
0	1505	13.212200918225	1
0	1506	13.220314360235	0
0	1510	13.250619304	1
0	1511	13.258696740546	0
0	1517	13.308791858995	1
0	1518	13.316815380823	0
0	1522	13.320515040003	1
0	1524	13.324301989257	2
0	1525	13.328527783727	1
0	1528	13.336533177307	0
0	1532	13.366183098011	1
0	1534	13.374154129932	0
0	1538	13.389899460771	1
0	1539	13.397849001758	0
0	1545	13.476935647841	1
0	1546	13.484472836787	0
0	1551	13.498943531941	1
0	1552	13.506601774736	0
0	1556	13.5100450744	1
0	1557	13.51784031794	0
0	1561	13.520597459724	1
0	1562	13.528430615351	0
0	1566	13.540898805083	1
0	1568	13.541332724327	2
0	1570	13.545952250636	3
0	1572	13.546518887029	4
0	1573	13.548714187641	3
0	1579	13.556522749606	2
0	1583	13.564324508809	1
0	1586	13.572119483004	0
0	1592	13.597797241166	1
0	1593	13.605563238343	0
0	1597	13.646934964714	1
0	1598	13.654658811991	0
0	1602	13.668743128656	1
0	1604	13.673518684842	2
0	1605	13.676448415326	1
0	1608	13.684147165448	0
0	1613	13.799471629425	1
0	1614	13.8070674985	0
0	1618	13.819954501559	1
0	1619	13.827533507776	0
0	1625	13.864574311962	1
0	1626	13.872197305603	0
0	1631	14.051497003082	1
0	1632	14.059647152248	0
0	1636	14.080310973034	1
0	1637	14.088482015876	0
0	1644	14.19199192642	1
0	1645	14.200195401642	0
0	1649	14.2073452972	1
0	1650	14.215557413247	0
0	1656	14.339071134083	1
0	1657	14.347358139851	0
0	1664	14.442376830482	1
0	1665	14.45072353088	0
0	1669	14.452432009027	1
0	1670	14.460784565715	0
0	1674	14.498438718755	1
0	1675	14.506818175611	0
0	1679	14.519011595312	1
0	1680	14.527403137295	0
0	1684	14.574622555837	1
0	1685	14.583046940522	0
0	1689	14.589568784345	1
0	1690	14.598002039846	0
0	1695	14.721333010068	1
0	1696	14.72984528556	0
0	1700	14.75779482535	1
0	1701	14.766329229531	0
0	1705	14.807303930549	1
0	1706	14.81586856665	0
0	1710	14.849701403122	1
0	1711	14.858292099304	0
0	1715	14.898225619935	1
0	1717	14.906819530123	0
0	1721	14.926303343525	1
0	1722	14.934883274566	0
0	1726	14.981800902004	1
0	1728	14.99035333565	0
0	1733	15.0550458166	1
0	1734	15.063562228232	0
0	1738	15.090187568961	1
0	1739	15.098686805301	0
0	1743	15.14591961128	1
0	1745	15.154391750564	0
0	1749	15.236920713373	1
0	1751	15.245348977163	0
0	1756	15.295072243862	1
0	1757	15.303472707531	0
0	1761	15.333026398631	1
0	1762	15.341408816504	0
0	1766	15.341753124839	1
0	1768	15.341775930249	2
0	1769	15.350131404434	1
0	1773	15.358505714829	0
0	1777	15.415902921929	1
0	1779	15.417511998005	2
0	1780	15.424246203311	1
0	1783	15.432585565012	0
0	1787	15.472898742238	1
0	1789	15.481215320088	0
0	1795	15.605755031851	1
0	1796	15.613909375772	0
0	1800	15.624879187786	1
0	1801	15.632997917471	0
0	1805	15.634459859778	1
0	1806	15.642560864425	0
0	1810	15.659911633284	1
0	1811	15.66796592378	0
0	1815	15.673941222696	1
0	1816	15.681969992907	0
0	1820	15.915677024675	1
0	1821	15.923290154732	0
0	1827	16.040722462294	1
0	1828	16.04842037182	0
0	1832	16.063537560377	1
0	1833	16.071261251239	0
0	1842	16.244055135064	1
0	1843	16.251557263943	0
0	1847	16.266775570789	1
0	1848	16.27429997236	0
0	1853	16.328367948375	1
0	1854	16.335953399135	0
0	1858	16.379723056873	1
0	1859	16.38736017234	0
0	1863	16.409660171097	1
0	1864	16.417327730162	0
0	1868	16.461681785813	1
0	1869	16.469402827963	0
0	1876	16.595199683836	1
0	1878	16.595925626306	2
0	1879	16.603023201205	1
0	1882	16.610843486577	0
0	1890	16.83270140876	1
0	1891	16.840427986764	0
0	1897	16.878835358462	1
0	1898	16.886543384277	0
0	1904	16.929734770161	1
0	1905	16.937656547285	0
0	1910	17.010931062606	1
0	1911	17.019768056871	0
0	1915	17.021019651284	1
0	1916	17.029985345886	0
0	1923	17.182661991987	1
0	1924	17.191244495709	0
0	1928	17.199020239386	1
0	1929	17.207547781601	0
0	1933	17.264574248639	1
0	1935	17.270143025742	2
0	1936	17.272888424316	1
0	1940	17.276813698404	2
0	1941	17.281176299398	1
0	1944	17.289438122169	0
0	1949	17.316893186254	1
0	1950	17.325044584494	0
0	1954	17.332183877659	1
0	1956	17.338788434747	2
0	1957	17.34028889946	1
0	1960	17.3483695522	0
0	1965	17.368104979801	1
0	1966	17.376103102057	0
0	1973	17.490969126524	1
0	1974	17.498747234582	0
0	1979	17.544956062258	1
0	1980	17.5529142916	0
0	1984	17.558668527245	1
0	1986	17.564086891974	2
0	1987	17.566673843084	1
0	1990	17.574706906436	0
0	1995	17.602788730358	1
0	1996	17.610944953471	0
0	2000	17.629508111544	1
0	2001	17.63762415132	0
0	2005	17.649252787292	1
0	2006	17.657339386483	0
0	2010	17.670235037294	1
0	2012	17.675210167224	2
0	2013	17.678290583788	1
0	2016	17.686334271732	0
0	2022	17.867004124304	1
0	2024	17.872687096529	2
0	2025	17.874779663882	1
0	2028	17.882544537945	0
0	2034	18.060589210281	1
0	2036	18.061081834052	2
0	2037	18.068263072249	1
0	2040	18.075993029516	0
0	2044	18.134538403123	1
0	2045	18.142789254148	0
0	2050	18.191167838424	1
0	2051	18.199601801474	0
0	2055	18.230542843049	1
0	2056	18.238801791289	0
0	2065	18.477012054479	1
0	2066	18.484466056651	0
0	2070	18.486715905736	1
0	2072	18.487357985552	2
0	2073	18.494173926841	1
0	2076	18.501635039696	0
0	2080	18.648463718817	1
0	2081	18.655989373105	0
0	2085	18.674464647042	1
0	2086	18.682001287959	0
0	2092	18.812100795826	1
0	2093	18.819696133071	0
0	2098	18.827571005704	1
0	2099	18.835172997583	0
0	2104	18.943234623958	1
0	2105	18.950886741408	0
0	2110	18.95520857417	1
0	2112	18.958037480548	2
0	2113	18.96287127333	1
0	2117	18.970548690696	0
0	2121	19.106195270768	1
0	2123	19.114158786295	0
0	2129	19.186730288135	1
0	2131	19.189584310862	2
0	2132	19.194661131566	1
0	2136	19.195628651118	2
0	2137	19.202588656122	1
0	2140	19.210512865967	0
0	2145	19.273712845355	1
0	2146	19.281607439796	0
0	2151	19.401047769049	1
0	2152	19.408889891743	0
0	2156	19.410438629417	1
0	2157	19.41827690996	0
0	2162	19.458307277949	1
0	2163	19.466126032008	0
0	2167	19.47755986089	1
0	2169	19.485370788879	0
0	2173	19.716799120128	1
0	2174	19.724514089532	0
0	2178	19.73906398393	1
0	2179	19.746770142709	0
0	2184	19.769291735596	1
0	2185	19.776985964841	0
0	2189	19.79280377069	1
0	2190	19.8004887463	0
0	2194	19.84647150357	1
0	2195	19.854135440321	0
0	2199	19.855608937549	1
0	2200	19.863269303708	0
0	2204	19.936466698679	1
0	2205	19.94409561282	0
0	2211	20.133340356044	1
0	2212	20.140893759647	0
0	2216	20.149586713881	1
0	2217	20.157133952934	0
0	2222	20.275480403943	1
0	2224	20.282980212595	0
0	2228	20.330486777213	1
0	2230	20.338135933516	0
0	2234	20.37311325945	1
0	2235	20.380884613633	0
0	2239	20.467791900747	1
0	2240	20.475849151907	0
0	2245	20.47827971815	1
0	2246	20.48636648448	0
0	2251	20.518061095608	1
0	2253	20.526278862118	0
0	2257	20.542688074886	1
0	2258	20.550986835258	0
0	2263	20.572522546572	1
0	2264	20.58092159182	0
0	2270	20.702497407642	1
0	2271	20.711173375911	0
0	2275	20.743383992861	1
0	2276	20.752052890518	0
0	2280	20.762274565422	1
0	2282	20.770940200179	0
0	2288	20.919866340795	1
0	2289	20.928504850716	0
0	2293	20.944175568366	1
0	2294	20.952798984086	0
0	2302	21.334460388835	1
0	2303	21.342095765403	0
0	2309	21.381723591203	1
0	2310	21.389395549016	0
0	2314	21.441742717106	1
0	2315	21.449461637408	0
0	2320	21.518096151475	1
0	2321	21.525875652654	0
0	2325	21.602262247813	1
0	2326	21.610109640113	0
0	2330	21.614098570699	1
0	2331	21.621955605718	0
0	2339	21.829813918489	1
0	2340	21.8378509373	0
0	2346	21.859608109751	1
0	2347	21.867670637742	0
0	2351	21.867850488517	1
0	2352	21.875920102084	0
0	2357	21.900965956878	1
0	2359	21.902404446753	2
0	2361	21.907206953556	3
0	2362	21.909064164202	2
0	2365	21.917169394835	1
0	2368	21.925281667078	0
0	2372	21.981303900242	1
0	2373	21.989472325266	0
0	2377	22.018041869149	1
0	2378	22.02624281158	0
0	2383	22.069808718261	1
0	2384	22.07805592232	0
0	2388	22.098264990953	1
0	2390	22.103906761896	2
0	2391	22.106537848059	1
0	2394	22.114818193033	0
0	2398	22.126652927265	1
0	2399	22.134951535322	0
0	2403	22.166501739051	1
0	2404	22.174836765965	0
0	2409	22.187610888258	1
0	2410	22.195965337184	0
0	2414	22.225849514678	1
0	2415	22.234239377494	0
0	2419	22.28548936189	1
0	2420	22.293899743222	0
0	2424	22.303657255468	1
0	2425	22.312064683023	0
0	2430	22.404253655191	1
0	2431	22.412505741736	0
0	2435	22.419676175417	1
0	2436	22.427843041168	0
0	2440	22.466292471064	1
0	2441	22.474212124341	0
0	2445	22.477031821725	1
0	2446	22.484896629208	0
0	2450	22.489945432961	1
0	2451	22.497745288315	0
0	2455	22.537284251397	1
0	2456	22.544854909896	0
0	2461	22.587223741134	1
0	2462	22.594723513646	0
0	2466	22.596249285594	1
0	2467	22.603760840684	0
0	2471	22.676935774008	1
0	2472	22.684554331221	0
0	2478	22.744103639552	1
0	2479	22.751813624252	0
0	2483	22.825067845014	1
0	2484	22.832890996055	0
0	2488	22.930758854931	1
0	2489	22.938734830322	0
0	2493	23.011142153157	1
0	2495	23.019192568708	0
0	2499	23.073769675025	1
0	2501	23.081948087665	0
0	2505	23.085398382679	1
0	2506	23.093563890388	0
0	2510	23.102033683923	1
0	2511	23.110180801289	0
0	2516	23.17083193815	1
0	2517	23.178903870569	0
0	2521	23.198150123573	1
0	2522	23.206192585298	0
0	2528	23.303336406291	1
0	2529	23.311298103026	0
0	2533	23.342190705388	1
0	2534	23.350124095663	0
0	2538	23.363943828318	1
0	2539	23.37186145854	0
0	2543	23.386726744055	1
0	2544	23.394627935136	0
0	2548	23.422500757227	1
0	2549	23.43037627267	0
0	2553	23.465095013405	1
0	2554	23.472940174987	0
0	2558	23.534064259388	1
0	2559	23.541860764637	0
0	2565	23.59663590275	1
0	2566	23.604388784277	0
0	2570	23.615261273273	1
0	2571	23.623001263684	0
0	2576	23.634498034774	1
0	2577	23.642224755835	0
0	2582	23.668149248504	1
0	2583	23.675852866334	0
0	2587	23.681245733129	1
0	2588	23.688940396875	0
0	2592	23.761188454828	1
0	2593	23.768828909771	0
0	2598	23.845030291018	1
0	2599	23.852614707755	0
0	2603	23.919265391657	1
0	2604	23.926800872841	0
0	2611	24.000018886398	1
0	2612	24.00750951146	0
0	2616	24.085926936591	1
0	2618	24.088228496614	2
0	2619	24.093688088629	1
0	2622	24.10147464632	0
0	2626	24.106807270974	1
0	2627	24.114637153808	0
0	2632	24.162805576068	1
0	2633	24.170745144291	0
0	2637	24.239304416427	1
0	2639	24.246712532053	2
0	2640	24.24721350214	1
0	2643	24.255119449663	0
0	2648	24.425680996961	1
0	2649	24.433516787874	0
0	2653	24.468519445027	1
0	2655	24.47633858081	0
0	2660	24.52978457806	1
0	2661	24.537580017276	0
0	2665	24.548395046748	1
0	2666	24.55618331609	0
0	2670	24.608081552965	1
0	2671	24.615846916183	0
0	2677	24.702463306254	1
0	2678	24.710192721931	0
0	2682	24.712910197852	1
0	2684	24.718441041546	2
0	2685	24.720635655029	1
0	2688	24.72835818751	0
0	2692	24.729013575204	1
0	2693	24.736732938481	0
0	2697	24.852026042425	1
0	2698	24.859699170183	0
0	2703	24.900899314838	1
0	2704	24.908567216958	0
0	2708	24.923500142833	1
0	2709	24.931170363729	0
0	2713	24.933871071105	1
0	2715	24.941520810814	2
0	2716	24.941542356497	1
0	2719	24.949214429477	0
0	2724	24.984026715387	1
0	2725	24.99170315304	0
0	2730	25.017059600655	1
0	2731	25.024739435407	0
0	2737	25.083491225145	1
0	2739	25.088254942248	2
0	2740	25.091177900832	1
0	2743	25.098865368857	0
0	2747	25.164341633155	1
0	2749	25.172036651041	0
0	2754	25.237130691534	1
0	2755	25.244833235349	0
0	2759	25.280304104192	1
0	2761	25.288011118824	0
0	2765	25.304719910893	1
0	2766	25.312429456198	0
0	2770	25.35761012706	1
0	2771	25.365325160087	0
0	2776	25.37952370057	1
0	2777	25.38724100957	0
0	2781	25.402100980699	1
0	2783	25.408177310783	2
0	2784	25.40982063601	1
0	2787	25.417541093902	0
0	2793	25.4506236443	1
0	2794	25.458348347089	0
0	2798	25.461746230695	1
0	2799	25.46947209142	0
0	2803	25.47404977433	1
0	2804	25.481776916341	0
0	2809	25.513599665936	1
0	2810	25.521329226958	0
0	2814	25.613317934031	1
0	2816	25.619770099713	2
0	2817	25.621036624332	1
0	2820	25.62875447446	0
0	2825	25.648759904586	1
0	2826	25.656474738565	0
0	2830	25.684481137619	1
0	2831	25.692192088788	0
0	2835	25.692559071095	1
0	2836	25.700269144755	0
0	2843	25.83731967262	1
0	2844	25.845014054658	0
0	2848	25.889559687552	1
0	2849	25.897248422599	0
0	2853	25.917041336737	1
0	2854	25.924727104425	0
0	2860	26.233681999347	1
0	2861	26.241333741931	0
0	2865	26.24442416981	1
0	2866	26.252074763361	0
0	2870	26.264736529542	1
0	2871	26.27238495133	0
0	2877	26.353149768391	1
0	2878	26.360788751529	0
0	2882	26.39863425484	1
0	2883	26.406268391303	0
0	2889	26.457006911424	1
0	2890	26.464634836895	0
0	2894	26.496357650383	1
0	2895	26.503981394539	0
0	2899	26.54768225032	1
0	2900	26.555300547732	0
0	2904	26.570847744892	1
0	2906	26.577989497228	2
0	2907	26.57846358645	1
0	2910	26.586078620972	0
0	2915	26.60326685556	1
0	2916	26.610879262913	0
0	2920	26.62665735187	1
0	2921	26.634267283356	0
0	2927	26.692572472112	1
0	2928	26.700175435186	0
0	2933	26.727172655217	1
0	2935	26.734771965535	0
0	2939	26.763460056648	1
0	2940	26.771118679751	0
0	2944	26.789133537759	1
0	2945	26.796841806204	0
0	2949	26.813103620898	1
0	2950	26.820858825317	0
0	2954	26.826653875999	1
0	2955	26.834435867023	0
0	2959	26.843637629123	1
0	2960	26.851453456658	0
0	2964	26.857532983195	1
0	2965	26.865376713896	0
0	2972	27.093249149167	1
0	2974	27.101571459282	2
0	2975	27.101598532983	1
0	2979	27.107864514178	2
0	2980	27.109967025991	1
0	2983	27.118354759899	0
0	2989	27.178453659487	1
0	2990	27.186954149551	0
0	2994	27.216904351954	1
0	2996	27.223992473932	2
0	2997	27.225436503837	1
0	3000	27.233975713433	0
0	3005	27.295225132616	1
0	3006	27.303811597467	0
0	3010	27.316033278456	1
0	3012	27.32445658559	2
0	3013	27.324629922722	1
0	3016	27.333230779544	0
0	3020	27.351295704782	1
0	3021	27.359909654762	0
0	3025	27.38197162827	1
0	3027	27.384060333768	2
0	3028	27.390600689821	1
0	3031	27.399234011779	0
0	3035	27.401231761976	1
0	3037	27.409870338578	0
0	3041	27.410327090346	1
0	3042	27.418970167596	0
0	3046	27.48364936256	1
0	3047	27.492257368614	0
0	3051	27.49375340047	1
0	3052	27.502351634084	0
0	3057	27.61803388158	1
0	3058	27.626084897406	0
0	3064	27.697469735585	1
0	3066	27.702041362063	2
0	3067	27.705232983002	1
0	3070	27.712969206502	0
0	3074	27.716804035587	1
0	3075	27.724500327566	0
0	3081	27.78547048115	1
0	3082	27.793795835793	0
0	3088	27.859722549623	1
0	3089	27.8679811904	0
0	3093	27.901432763248	1
0	3094	27.909654395204	0
0	3099	27.92448726542	1
0	3100	27.93268858346	0
0	3107	28.093335552113	1
0	3108	28.101530632361	0
0	3114	28.151784331045	1
0	3116	28.15194889838	2
0	3118	28.160115789194	1
0	3122	28.16846705754	0
0	3126	28.209346521588	1
0	3127	28.217816799182	0
0	3131	28.276343750187	1
0	3132	28.284872027443	0
0	3136	28.290666554227	1
0	3137	28.299190683977	0
0	3143	28.36210800447	1
0	3144	28.370611506758	0
0	3148	28.391614103249	1
0	3149	28.400109115271	0
0	3153	28.402056068099	1
0	3154	28.410548079546	0
0	3158	28.463005364694	1
0	3159	28.471479904125	0
0	3164	28.506154410628	1
0	3165	28.514616624151	0
0	3169	28.556360587727	1
0	3170	28.564808504464	0
0	3177	28.759542947382	1
0	3178	28.767933495604	0
0	3182	28.81020741751	1
0	3183	28.818583781787	0
0	3187	28.869410171278	1
0	3189	28.871585509439	2
0	3190	28.877770021884	1
0	3194	28.881283904258	2
0	3195	28.886127545887	1
0	3198	28.894482745228	0
0	3202	29.008641714397	1
0	3203	29.016939108681	0
0	3207	29.07354937986	1
0	3208	29.081769132611	0
0	3215	29.192280968745	1
0	3216	29.200362393339	0
0	3221	29.230607305535	1
0	3223	29.238645066687	0
0	3227	29.241236883643	1
0	3228	29.249262618453	0
0	3232	29.328643722548	1
0	3233	29.336571913051	0
0	3237	29.355150452839	1
0	3239	29.363049529188	0
0	3243	29.370390461916	1
0	3244	29.378272895729	0
0	3249	29.499018613105	1
0	3251	29.503572081497	2
0	3252	29.506638515742	1
0	3255	29.51423551046	0
0	3259	29.536064965952	1
0	3260	29.543574773324	0
0	3265	29.565610198607	1
0	3267	29.573035953288	0
0	3271	29.596277506544	1
0	3272	29.603748910621	0
0	3276	29.621931248828	1
0	3277	29.629441272777	0
0	3283	29.688704314512	1
0	3284	29.6962544939	0
0	3288	29.73247000611	1
0	3289	29.739976680787	0
0	3293	29.741943115027	1
0	3294	29.749440439006	0
0	3298	29.767128221887	1
0	3299	29.774600799119	0
0	3307	29.874765191904	1
0	3308	29.882678343657	0
0	3313	29.927015300116	1
0	3315	29.927769116643	2
0	3316	29.93501721801	1
0	3320	29.938893336869	2
0	3321	29.943032906272	1
0	3325	29.943050349397	2
0	3326	29.951062436199	1
0	3330	29.957186989154	2
0	3331	29.959105879703	1
0	3334	29.967163309323	0
0	3338	29.982646363102	1
0	3339	29.990745006338	0
0	3345	30.143986522212	1
0	3346	30.152251302844	0
0	3350	30.159475547447	1
0	3351	30.167736846311	0
0	3357	30.19581326584	1
0	3359	30.203452069916	0
0	3364	30.234624039292	1
0	3366	30.242868487134	0
0	3370	30.294420520156	1
0	3371	30.302651608488	0
0	3375	30.302783927445	1
0	3377	30.308272739942	2
0	3378	30.311013150706	1
0	3381	30.319240539644	0
0	3385	30.363690805047	1
0	3386	30.371906471294	0
0	3390	30.40656854482	1
0	3392	30.414774693847	0
0	3396	30.448396194606	1
0	3397	30.456593080715	0
0	3402	30.559461620467	1
0	3403	30.567512901331	0
0	3407	30.655120034744	1
0	3409	30.66122152096	2
0	3410	30.662905823479	1
0	3413	30.670670771879	0
0	3417	30.678151207248	1
0	3418	30.685875669536	0
0	3423	30.742043081796	1
0	3425	30.749602364877	0
0	3429	30.752173608208	1
0	3430	30.759707347572	0
0	3435	30.772915504283	1
0	3436	30.780397478656	0
0	3442	30.8132784187	1
0	3443	30.820752072932	0
0	3447	30.860753106997	1
0	3448	30.86828226922	0
0	3452	30.875704689773	1
0	3453	30.883251504701	0
0	3457	30.90944105502	1
0	3458	30.917028006775	0
0	3462	30.942337838842	1
0	3464	30.949964341822	0
0	3470	30.996058348126	1
0	3472	31.002745903582	2
0	3473	31.003750332466	1
0	3476	31.011451784912	0
0	3482	31.136406637011	1
0	3483	31.143981051193	0
0	3489	31.185860237269	1
0	3490	31.19355854678	0
0	3495	31.291547314117	1
0	3496	31.299524478604	0
0	3500	31.389382768823	1
0	3501	31.397278811908	0
0	3505	31.42265104066	1
0	3506	31.430515245338	0
0	3511	31.554097698073	1
0	3512	31.561754193178	0
0	3516	31.574585771736	1
0	3517	31.582208810147	0
0	3527	31.737036830314	1
0	3528	31.744769428038	0
0	3533	31.819919068663	1
0	3535	31.827823396122	0
0	3539	31.866961091458	1
0	3540	31.875031780714	0
0	3545	31.93397581286	1
0	3546	31.942301621707	0
0	3552	31.973016087584	1
0	3554	31.981498094058	0
0	3558	32.008220355657	1
0	3559	32.016780439203	0
0	3564	32.089183188911	1
0	3565	32.097748130394	0
0	3569	32.105793180294	1
0	3571	32.114359119092	0
0	3578	32.166005256416	1
0	3580	32.171791482283	2
0	3581	32.174574812482	1
0	3585	32.18145060039	2
0	3586	32.183144883616	1
0	3589	32.191715469911	0
0	3593	32.228623868853	1
0	3595	32.237197190002	0
0	3599	32.258747471111	1
0	3601	32.2599136445	2
0	3603	32.267322604688	1
0	3607	32.268969453407	2
0	3608	32.275898254339	1
0	3612	32.27674751993	2
0	3613	32.284474420158	1
0	3616	32.293051102238	0
0	3620	32.321909265901	1
0	3621	32.330488202182	0
0	3627	32.422291520485	1
0	3628	32.430876507301	0
0	3632	32.460713661977	1
0	3634	32.461535069288	2
0	3635	32.469250377542	1
0	3638	32.477775161011	0
0	3642	32.494190529235	1
0	3643	32.502680643192	0
0	3647	32.525967372471	1
0	3648	32.534413719612	0
0	3654	32.780403708654	1
0	3655	32.78851524242	0
0	3659	32.803295757975	1
0	3660	32.811378464953	0
0	3664	32.927714548814	1
0	3666	32.934707936099	2
0	3667	32.935644096627	1
0	3671	32.943564079706	0
0	3675	32.943574613415	1
0	3678	32.946274798899	2
0	3679	32.951485053643	1
0	3683	32.95938599806	0
0	3687	32.996800658254	1
0	3688	33.004647641512	0
0	3692	33.040457904157	1
0	3693	33.048253593559	0
0	3697	33.075583779149	1
0	3700	33.083338682671	0
0	3704	33.109063257968	1
0	3705	33.116779682562	0
0	3709	33.204313745079	1
0	3711	33.211922755093	0
0	3716	33.249763534458	1
0	3717	33.257394078901	0
0	3724	33.392922160376	1
0	3725	33.40224572339	0
0	3729	33.418056520201	1
0	3730	33.427616604358	0
0	3734	33.513351346377	1
0	3735	33.522770190516	0
0	3740	33.620459168462	1
0	3742	33.621924285297	2
0	3743	33.629689220564	1
0	3746	33.638903357042	0
0	3753	33.736672803601	1
0	3754	33.745706392031	0
0	3760	33.855998758838	1
0	3761	33.864839138489	0
0	3765	33.896679636374	1
0	3767	33.90545602226	0
0	3771	33.906371759623	1
0	3772	33.91513303557	0
0	3776	33.968984357974	1
0	3777	33.977649261331	0
0	3781	33.990931252792	1
0	3782	33.999562875638	0
0	3787	34.122512492802	1
0	3788	34.130949824824	0
0	3792	34.148091876042	1
0	3793	34.156492448967	0
0	3797	34.175199459289	1
0	3798	34.18356142497	0
0	3803	34.267285301316	1
0	3804	34.275518725762	0
0	3809	34.367733358141	1
0	3810	34.375831000845	0
0	3814	34.379651853147	1
0	3815	34.387733681537	0
0	3819	34.402892354324	1
0	3820	34.410943522531	0
0	3824	34.413347637976	1
0	3826	34.418692932737	2
0	3827	34.421385088721	1
0	3830	34.429412025968	0
0	3839	34.682448483034	1
0	3840	34.690166605782	0
0	3845	34.695703507867	1
0	3847	34.698172848787	2
0	3848	34.703260820671	1
0	3851	34.710829874346	0
0	3858	34.828392301888	1
0	3859	34.835917727817	0
0	3864	34.848496216352	1
0	3865	34.855925102089	0
0	3869	34.860682284199	1
0	3871	34.868167779505	0
0	3875	34.889319583877	1
0	3876	34.896941569799	0
0	3881	34.977955933981	1
0	3882	34.985669762672	0
0	3886	34.99173846173	1
0	3888	34.998372169199	2
0	3889	34.99945671665	1
0	3892	35.007177452491	0
0	3896	35.015411164297	1
0	3897	35.023137033523	0
0	3901	35.119355981839	1
0	3903	35.12548025915	2
0	3904	35.127115463415	1
0	3908	35.134877465888	0
0	3912	35.187050862721	1
0	3913	35.194832392311	0
0	3917	35.277021213944	1
0	3919	35.284627680011	2
0	3920	35.284832241259	1
0	3923	35.292645840055	0
0	3927	35.299873851357	1
0	3928	35.3076924068	0
0	3932	35.337859037893	1
0	3934	35.345690138593	0
0	3939	35.392113749221	1
0	3940	35.399962838444	0
0	3944	35.402392700705	1
0	3945	35.410245207301	0
0	3949	35.426529163787	1
0	3950	35.434389706577	0
0	3955	35.491801586572	1
0	3957	35.492064812111	2
0	3958	35.499683944321	1
0	3961	35.507568944661	0
0	3966	35.619221423118	1
0	3967	35.62714671716	0
0	3972	35.634556529817	1
0	3973	35.642487022841	0
0	3977	35.649078425911	1
0	3978	35.657013848511	0
0	3984	35.744734625718	1
0	3985	35.75270267336	0
0	3989	35.756150913619	1
0	3990	35.764122872892	0
0	3995	35.784749385211	1
0	3996	35.792731160231	0
0	4000	35.804175994618	1
0	4002	35.809263703241	2
0	4003	35.812164451159	1
0	4008	35.819748242063	2
0	4009	35.820155658469	1
0	4013	35.828149619391	0
0	4023	36.018383690808	1
0	4024	36.026104357847	0
0	4028	36.071519310247	1
0	4029	36.079260013661	0
0	4033	36.128575403411	1
0	4034	36.136224812036	0
0	4040	36.259394922448	1
0	4041	36.267339326465	0
0	4048	36.317043487656	1
0	4050	36.317543366474	2
0	4051	36.324991919991	1
0	4054	36.332950582329	0
0	4061	36.459260597917	1
0	4062	36.467065069609	0
0	4067	36.50300508199	1
0	4068	36.510702354594	0
0	4076	36.648988699294	1
0	4078	36.652537442863	2
0	4079	36.65662701226	1
0	4082	36.664327108439	0
0	4086	36.766252780994	1
0	4087	36.774438556678	0
0	4095	36.942017132425	1
0	4096	36.950022523532	0
0	4100	36.969739169092	1
0	4101	36.977714987709	0
0	4105	36.978564912069	1
0	4106	36.98653136162	0
0	4111	36.996225413695	1
0	4112	37.004173181479	0
0	4118	37.068885331674	1
0	4119	37.07677571573	0
0	4124	37.104293503881	1
0	4125	37.112168575809	0
0	4129	37.131077283996	1
0	4130	37.138940812803	0
0	4135	37.207430950765	1
0	4137	37.215261758067	0
0	4142	37.243649707005	1
0	4143	37.25146508773	0
0	4148	37.282047597094	1
0	4150	37.289846689325	0
0	4155	37.352452372862	1
0	4156	37.360221774893	0
0	4160	37.377856177474	1
0	4161	37.38561492196	0
0	4166	37.454683900135	1
0	4167	37.462410590617	0
0	4172	37.503860924115	1
0	4173	37.511567235652	0
0	4177	37.520095006808	1
0	4178	37.527794614526	0
0	4183	37.575589631023	1
0	4185	37.583244732472	0
0	4189	37.648061692331	1
0	4190	37.65556714219	0
0	4196	37.855480624984	1
0	4197	37.86291865235	0
0	4202	37.914966449821	1
0	4203	37.922523454382	0
0	4209	37.967435016388	1
0	4210	37.975100167427	0
0	4214	37.997722177861	1
0	4215	38.005451176608	0
0	4219	38.024716043702	1
0	4221	38.03182070509	2
0	4222	38.032502850791	1
0	4225	38.040306494661	0
0	4235	38.179288470071	1
0	4236	38.187391822084	0
0	4240	38.198376120724	1
0	4241	38.206438166699	0
0	4246	38.269445501606	1
0	4247	38.277666803146	0
0	4253	38.380317002105	1
0	4254	38.388730914512	0
0	4258	38.410725415649	1
0	4259	38.419137042461	0
0	4264	38.480185959308	1
0	4265	38.488592369896	0
0	4269	38.513411744848	1
0	4270	38.521815662592	0
0	4276	38.585148132273	1
0	4277	38.593546672862	0
0	4286	38.947891598918	1
0	4287	38.956263054319	0
0	4291	38.977995087929	1
0	4292	38.986364303423	0
0	4298	39.156904460756	1
0	4299	39.16526038885	0
0	4308	39.379246267392	1
0	4310	39.379599478485	2
0	4311	39.387585741091	1
0	4314	39.395924598888	0
0	4318	39.398354542841	1
0	4319	39.406692605456	0
0	4325	39.499362169969	1
0	4326	39.507692781428	0
0	4334	39.743275168579	1
0	4335	39.751491747724	0
0	4341	39.767584425062	1
0	4342	39.775825012629	0
0	4346	39.78210774145	1
0	4347	39.790362739671	0
0	4351	39.809448671039	1
0	4352	39.817730935301	0
0	4359	39.903264377241	1
0	4360	39.911422993343	0
0	4364	39.922099107749	1