version 3
run monitoring-exponential-0-20230106-17:25:37-1829
attr configname monitoring-exponential
attr datetime 20230106-17:25:37
attr datetimef 20230106-172537
attr experiment monitoring-exponential
attr inifile omnetpp.ini
attr iterationvars ""
attr iterationvarsd ""
attr iterationvarsf ""
attr measurement ""
attr network AerocomSys
attr processid 1829
attr repetition 0
attr replication #0
attr resultdir results
attr runnumber 0
attr seedset 0
config description "aircraft in monitoring mode, new capacity selected with exponential distrbution"
config **.X 0.1
config **.exponentialMean 1
config **.generationMode 1
config **.operationMode 0
config network AerocomSys
config repeat 10
config seed-set 0
config num-rngs 3
config **.size 100
config **.minCapacity 6000
config **.maxCapacity 15000
config sim-time-limit 300s
config warmup-period 10s
config rng-class omnetpp::cMersenneTwister
config **.nDL 15
config **.nAC 1
config **.kMean 0.05+0*0.001
config **.PacketGenerator.rng-0 0
config **.LinkSelector.rng-1 1
config **.DataLink[*].rng-2 2

vector 0 AerocomSys.airCraft[0].linkSelector queueLengthStatistic:vector ETV
attr recordingmode vector
attr source queueLength
attr title "queue length statistic"
vector 1 AerocomSys.airCraft[0].linkSelector serviceTimeStatistic:vector ETV
attr recordingmode vector
attr source serviceTime
attr title "service time statistic"
vector 2 AerocomSys.airCraft[0].linkSelector waitingTimeStatistic:vector ETV
attr recordingmode vector
attr source waitingTime
attr title "waiting time statistic"
vector 3 AerocomSys.controlTower responseTimeStatistic:vector ETV
attr recordingmode vector
attr source responseTime
attr title "response time statistic"
0	1174	10.005245567619	1
0	1175	10.013592117165	0
0	1179	10.047399719226	1
0	1180	10.055722089206	0
0	1184	10.063135802269	1
0	1185	10.071449181923	0
0	1190	10.123961234941	1
0	1191	10.132240045745	0
0	1196	10.190399128629	1
0	1197	10.198640507878	0
0	1201	10.207416465541	1
0	1202	10.215648311498	0
0	1208	10.371173624427	1
0	1209	10.379314846786	0
0	1213	10.399568832101	1
0	1214	10.407694543088	0
0	1218	10.413869880726	1
0	1219	10.421987801879	0
0	1223	10.484421101191	1
0	1224	10.49250081039	0
0	1229	10.527340749582	1
0	1230	10.535397388126	0
0	1235	10.552557939911	1
0	1236	10.560601084768	0
0	1242	10.59738748345	1
0	1243	10.605406751344	0
0	1247	10.710574162243	1
0	1248	10.718533771144	0
0	1252	10.753035202821	1
0	1253	10.76097265947	0
0	1258	10.803968139322	1
0	1260	10.811879185984	0
0	1264	10.816589138967	1
0	1265	10.824483649756	0
0	1270	10.927664483891	1
0	1271	10.935512116772	0
0	1277	11.080278566735	1
0	1278	11.088012708405	0
0	1282	11.137258964912	1
0	1283	11.144936563934	0
0	1287	11.166890166285	1
0	1288	11.174538687258	0
0	1292	11.196709136001	1
0	1293	11.204328616175	0
0	1300	11.290382129994	1
0	1301	11.297911799327	0
0	1308	11.482532459156	1
0	1310	11.490465927568	0
0	1314	11.542644387518	1
0	1317	11.548820719886	2
0	1318	11.550688508709	1
0	1321	11.558736051836	0
0	1325	11.56647172655	1
0	1326	11.574523897561	0
0	1330	11.639312654478	1
0	1331	11.647386252728	0
0	1337	11.723358764705	1
0	1339	11.731457228502	0
0	1343	11.749894889536	1
0	1344	11.75800123605	0
0	1348	11.775145826924	1
0	1349	11.783259688644	0
0	1354	11.831409927766	1
0	1355	11.839540585076	0
0	1359	11.937884897569	1
0	1360	11.946047530136	0
0	1364	11.952255421373	1
0	1365	11.960422388793	0
0	1369	11.995782212689	1
0	1370	12.003962338053	0
0	1374	12.014569154809	1
0	1375	12.022754972486	0
0	1379	12.121310677308	1
0	1380	12.129522230861	0
0	1387	12.289529199961	1
0	1388	12.297687932682	0
0	1392	12.348498346643	1
0	1393	12.356679305777	0
0	1397	12.392891417165	1
0	1398	12.40108918882	0
0	1403	12.457486880605	1
0	1404	12.465709239619	0
0	1408	12.511378624812	1
0	1409	12.519621610101	0
0	1413	12.546168597857	1
0	1414	12.554424953553	0
0	1419	12.584261986422	1
0	1420	12.592533031923	0
0	1427	12.740535404305	1
0	1430	12.748758417401	0
0	1434	12.753638266389	1
0	1435	12.761856415708	0
0	1439	12.805278116921	1
0	1440	12.813477153438	0
0	1444	12.830393656834	1
0	1445	12.838583429753	0
0	1449	12.857963456341	1
0	1450	12.866143084505	0
0	1454	12.906186134616	1
0	1455	12.914348078759	0
0	1459	12.952806278636	1
0	1460	12.960665609378	0
0	1465	12.985011514052	1
0	1467	12.985980503119	2
0	1468	12.992557988169	1
0	1471	13.000126577413	0
0	1476	13.017736888901	1
0	1477	13.025380212498	0
0	1481	13.035683249694	1
0	1482	13.043380747747	0
0	1488	13.098635425557	1
0	1489	13.106529182998	0
0	1493	13.15260143549	1
0	1494	13.16067158207	0
0	1498	13.169584672119	1
0	1499	13.177651357568	0
0	1503	13.186714653354	1
0	1504	13.194775220652	0
0	1509	13.210896437683	1
0	1510	13.218959107358	0
0	1515	13.259015190472	1
0	1516	13.267147337664	0
0	1520	13.328164150799	1
0	1521	13.336398263555	0
0	1526	13.356162204303	1
0	1527	13.364438333352	0
0	1532	13.461534584551	1
0	1534	13.468813283473	2
0	1535	13.469910191978	1
0	1540	13.474240638398	2
0	1541	13.47827387054	1
0	1544	13.486625671084	0
0	1548	13.49195184501	1
0	1550	13.496797982739	2
0	1551	13.50028429276	1
0	1554	13.508604994933	0
0	1558	13.538992406369	1
0	1559	13.547258976238	0
0	1563	13.560843807058	1
0	1565	13.569080128202	0
0	1570	13.605530260973	1
0	1571	13.613705407131	0
0	1575	13.645657860261	1
0	1576	13.653778841711	0
0	1580	13.688361847043	1
0	1582	13.690072017961	2
0	1583	13.69642596897	1
0	1586	13.704479442932	0
0	1590	13.74302248723	1
0	1591	13.75101498108	0
0	1597	13.916649261194	1
0	1598	13.924422440773	0
0	1605	13.969441741627	1
0	1606	13.977150603548	0
0	1610	13.988798246234	1
0	1611	13.996483791777	0
0	1615	14.01702877129	1
0	1617	14.024680562777	0
0	1621	14.029532846039	1
0	1622	14.037185072226	0
0	1629	14.142964545674	1
0	1631	14.150579226937	2
0	1632	14.150657487229	1
0	1635	14.158353205796	0
0	1639	14.173487871135	1
0	1641	14.178603901878	2
0	1642	14.181191842872	1
0	1645	14.188898603586	0
0	1650	14.207226979449	1
0	1651	14.214943180315	0
0	1659	14.414117467475	1
0	1660	14.421722202215	0
0	1667	14.525363200336	1
0	1668	14.53285879305	0
0	1672	14.540441495997	1
0	1673	14.547948538279	0
0	1679	14.622486374893	1
0	1680	14.630356334277	0
0	1684	14.66099021787	1
0	1686	14.668874745119	0
0	1690	14.721841192637	1
0	1691	14.729748853044	0
0	1695	14.751544867553	1
0	1697	14.756825499734	2
0	1698	14.759463869508	1
0	1702	14.762069591514	2
0	1703	14.767385900616	1
0	1706	14.775310964355	0
0	1715	14.888033698018	1
0	1716	14.896005235532	0
0	1720	14.909750980815	1
0	1721	14.917730941819	0
0	1725	14.972381357061	1
0	1727	14.980328314139	0
0	1731	15.004054487947	1
0	1732	15.011969939828	0
0	1741	15.342324013944	1
0	1742	15.349917937368	0
0	1747	15.434310653198	1
0	1748	15.442252110752	0
0	1752	15.442404157534	1
0	1753	15.450394809519	0
0	1759	15.559913022022	1
0	1760	15.568153675029	0
0	1766	15.661208462877	1
0	1768	15.663122608521	2
0	1769	15.669491273199	1
0	1773	15.671988887278	2
0	1774	15.677777549761	1
0	1777	15.686067296917	0
0	1782	15.707484783639	1
0	1783	15.715786997196	0
0	1787	15.755283104835	1
0	1788	15.763605455461	0
0	1792	15.764410034929	1
0	1794	15.77101922041	2
0	1795	15.772736241774	1
0	1798	15.781065969642	0
0	1803	15.84651039319	1
0	1804	15.854871449579	0
0	1808	15.940706837519	1
0	1809	15.949083587716	0
0	1814	16.040806162295	1
0	1815	16.048977697842	0
0	1823	16.123142117361	1
0	1825	16.131345379731	0
0	1829	16.149642261268	1
0	1830	16.157876790927	0
0	1835	16.191736309355	1
0	1837	16.199275859865	2
0	1838	16.200020998409	1
0	1841	16.20831563158	0
0	1846	16.225419361369	1
0	1848	16.227108700647	2
0	1850	16.230692469863	3
0	1851	16.233744629529	2
0	1854	16.242079988763	1
0	1857	16.250420243988	0
0	1862	16.433184811803	1
0	1863	16.441429032254	0
0	1868	16.492956740117	1
0	1869	16.501322765938	0
0	1873	16.516320368437	1
0	1874	16.524940805355	0
0	1878	16.546535322029	1
0	1879	16.555205807978	0
0	1883	16.573778178436	1
0	1884	16.582461170118	0
0	1888	16.637794888627	1
0	1890	16.640390516236	2
0	1891	16.646507409413	1
0	1894	16.655223964574	0
0	1898	16.741029153046	1
0	1899	16.749789718315	0
0	1903	16.763774745286	1
0	1904	16.772545967512	0
0	1909	16.949272774881	1
0	1911	16.950111163181	2
0	1912	16.957818675866	1
0	1915	16.966330789406	0
0	1919	17.046940025056	1
0	1920	17.055115075029	0
0	1924	17.060056490514	1
0	1926	17.06064565211	2
0	1927	17.06818417345	1
0	1930	17.076282779625	0
0	1935	17.133035356209	1
0	1936	17.140909203229	0
0	1941	17.155347997235	1
0	1942	17.163147371071	0
0	1949	17.29957858484	1
0	1950	17.307235019658	0
0	1955	17.365043503041	1
0	1956	17.372823483486	0
0	1961	17.434358070642	1
0	1962	17.442273283018	0
0	1966	17.443772819403	1
0	1967	17.451706763345	0
0	1971	17.464503446536	1
0	1972	17.472478950268	0
0	1976	17.501310001535	1
0	1977	17.509360376164	0
0	1981	17.534933027377	1
0	1983	17.537726530021	2
0	1984	17.543053036279	1
0	1987	17.551190042927	0
0	1991	17.558425476155	1
0	1992	17.566594857843	0
0	1996	17.56958243656	1
0	1997	17.577775477109	0
0	2001	17.579473911933	1
0	2003	17.580408685454	2
0	2004	17.587688042718	1
0	2008	17.589784633014	2
0	2009	17.595919770067	1
0	2012	17.604169207472	0
0	2017	17.668705269119	1
0	2018	17.677114680165	0
0	2022	17.699835136318	1
0	2023	17.708314877115	0
0	2027	17.712510421575	1
0	2028	17.721019137007	0
0	2034	17.816311974597	1
0	2035	17.825065636549	0
0	2039	17.837494829665	1
0	2040	17.846300220914	0
0	2050	17.981722044085	1
0	2051	17.990147130418	0
0	2057	18.113332987212	1
0	2058	18.122852234708	0
0	2064	18.160189923098	1
0	2065	18.169855271837	0
0	2070	18.221129763265	1
0	2071	18.230991969888	0
0	2076	18.266527964631	1
0	2078	18.268145804863	2
0	2079	18.276542116385	1
0	2082	18.286590417364	0
0	2086	18.344687366176	1
0	2088	18.353685233254	2
0	2089	18.35497438092	1
0	2093	18.365298420082	0
0	2097	18.388345221731	1
0	2098	18.398721437886	0
0	2104	18.436919329636	1
0	2106	18.439503474926	2
0	2107	18.447280056956	1
0	2110	18.45763748653	0
0	2114	18.48254965676	1
0	2115	18.492862318974	0
0	2119	18.542598202087	1
0	2120	18.552823515166	0
0	2124	18.556181605604	1
0	2125	18.56638736452	0
0	2130	18.800138250004	1
0	2131	18.81000512852	0
0	2136	18.9362056628	1
0	2137	18.94528282823	0
0	2141	18.951754053048	1
0	2142	18.960719588776	0
0	2146	18.999345538425	1
0	2147	19.007985835598	0
0	2152	19.056175363188	1
0	2153	19.064456916375	0
0	2157	19.094529345917	1
0	2158	19.102585163671	0
0	2165	19.194387944291	1
0	2167	19.202248622648	0
0	2171	19.238956873137	1
0	2172	19.246824730241	0
0	2178	19.308440726326	1
0	2179	19.316319801433	0
0	2184	19.373929994894	1
0	2185	19.38181967241	0
0	2192	19.540826711587	1
0	2193	19.548743538372	0
0	2197	19.559521036382	1
0	2198	19.567440915834	0
0	2202	19.599920039052	1
0	2203	19.607846523457	0
0	2207	19.625313295186	1
0	2208	19.633243936852	0
0	2212	19.637250938828	1
0	2213	19.645183536375	0
0	2217	19.649027167499	1
0	2218	19.656961695425	0
0	2222	19.661607098155	1
0	2223	19.669543689243	0
0	2227	19.671908700579	1
0	2228	19.679846981973	0
0	2232	19.684251664019	1
0	2233	19.692191971617	0
0	2240	19.828705443614	1
0	2241	19.836669541668	0
0	2245	19.870854382385	1
0	2246	19.878825448945	0
0	2251	19.938121754047	1
0	2252	19.946103967251	0
0	2258	19.968205703373	1
0	2259	19.97619291178	0
0	2263	20.001917931855	1
0	2265	20.009910745346	0
0	2273	20.177641865882	1
0	2274	20.185664023536	0
0	2279	20.190542504079	1
0	2280	20.198566824505	0
0	2285	20.247599399222	1
0	2286	20.255633299146	0
0	2290	20.262274781818	1
0	2292	20.266732496318	2
0	2294	20.269721544464	3
0	2295	20.270311149347	2
0	2299	20.27262516257	3
0	2300	20.2783488688	2
0	2304	20.28638794086	1
0	2307	20.294428366209	0
0	2312	20.301120040835	1
0	2313	20.309162947355	0
0	2318	20.334575727019	1
0	2319	20.342668350957	0
0	2323	20.353259216739	1
0	2324	20.361394198401	0
0	2329	20.459692721466	1
0	2330	20.46802377607	0
0	2336	20.519285626649	1
0	2337	20.527586240973	0
0	2347	20.70662035734	1
0	2348	20.71448329039	0
0	2352	20.730341171857	1
0	2353	20.738194037514	0
0	2357	20.778413150436	1
0	2358	20.786245692636	0
0	2362	20.788311537203	1
0	2363	20.796139907701	0
0	2368	20.827410323247	1
0	2370	20.828659740913	2
0	2371	20.835222258811	1
0	2374	20.843030918943	0
0	2379	20.925077747757	1
0	2381	20.928558631311	2
0	2382	20.932848929332	1
0	2385	20.940616886457	0
0	2389	20.996655217526	1
0	2390	21.004396800726	0
0	2395	21.053532142803	1
0	2396	21.061250366804	0
0	2402	21.086093679399	1
0	2404	21.093798593807	0
0	2408	21.116322740316	1
0	2409	21.124015339558	0
0	2413	21.172840517612	1
0	2414	21.180510197094	0
0	2418	21.211296507667	1
0	2419	21.218950669941	0
0	2423	21.257999524297	1
0	2424	21.265634925866	0
0	2428	21.371491525086	1
0	2429	21.379081717685	0
0	2434	21.434201688591	1
0	2435	21.441767129796	0
0	2443	21.66618431491	1
0	2444	21.673899415128	0
0	2448	21.69788081588	1
0	2449	21.705663498256	0
0	2453	21.710105366982	1
0	2454	21.717914431563	0
0	2458	21.740547012669	1
0	2459	21.748422558266	0
0	2465	21.79494223435	1
0	2466	21.802835572836	0
0	2472	21.913388142892	1
0	2473	21.921156087372	0
0	2477	21.928668387983	1
0	2479	21.936048189628	2
0	2480	21.936420445412	1
0	2484	21.937091550559	2
0	2485	21.944164467757	1
0	2489	21.950109121136	2
0	2490	21.95190047996	1
0	2493	21.959628506835	0
0	2498	22.021128293915	1
0	2499	22.028785589024	0
0	2505	22.127806458289	1
0	2506	22.135402283366	0
0	2510	22.147090842991	1
0	2511	22.15468899884	0
0	2517	22.264483031062	1
0	2519	22.272095406224	0
0	2523	22.288664950436	1
0	2524	22.296280261284	0
0	2528	22.34055745421	1
0	2529	22.348179072459	0
0	2533	22.384932550634	1
0	2534	22.392559570856	0
0	2538	22.404561202043	1
0	2539	22.412190614189	0
0	2543	22.493468368885	1
0	2544	22.501108633968	0
0	2548	22.530136752543	1
0	2549	22.537781502751	0
0	2554	22.579711967188	1
0	2556	22.579714734783	2
0	2557	22.587362789609	1
0	2560	22.59501455	0
0	2565	22.682755796827	1
0	2567	22.690419271472	0
0	2571	22.701443961518	1
0	2573	22.709109735271	0
0	2577	22.717422694262	1
0	2578	22.72509043489	0
0	2583	22.745131235714	1
0	2585	22.752802389471	0
0	2590	22.825117207806	1
0	2591	22.832798231279	0
0	2596	22.93340539185	1
0	2597	22.941099817871	0
0	2601	22.943672780287	1
0	2602	22.951368479505	0
0	2606	23.000625662821	1
0	2607	23.008328432076	0
0	2615	23.153284896301	1
0	2616	23.161680312789	0
0	2622	23.183737126936	1
0	2623	23.192030713448	0
0	2627	23.241892791107	1
0	2628	23.249998617393	0
0	2633	23.274917945094	1
0	2634	23.282920883663	0
0	2638	23.287053869778	1
0	2639	23.295019652878	0
0	2647	23.364787016668	1
0	2648	23.372522757035	0
0	2654	23.512011030539	1
0	2655	23.519883402547	0
0	2659	23.525043037008	1
0	2660	23.532938917739	0
0	2665	23.590668436656	1
0	2666	23.598684866807	0
0	2671	23.696805769353	1
0	2673	23.705025154663	0
0	2677	23.711453342277	1
0	2679	23.719991330845	0
0	2684	23.730274809853	1
0	2685	23.738843356409	0
0	2689	23.742270985825	1
0	2690	23.750859123422	0
0	2696	23.900125762896	1
0	2697	23.908272315625	0
0	2702	23.936637146158	1
0	2703	23.944643890183	0
0	2707	23.968546576438	1
0	2709	23.969846463698	2
0	2710	23.976435004976	1
0	2714	23.984294721479	0
0	2719	24.032014002595	1
0	2720	24.040031001847	0
0	2724	24.043640253514	1
0	2725	24.051697178618	0
0	2729	24.051983985576	1
0	2730	24.06006980998	0
0	2735	24.079625904109	1
0	2736	24.087808967798	0
0	2742	24.145174522517	1
0	2743	24.153597797709	0
0	2747	24.168608346316	1
0	2748	24.177099896231	0
0	2753	24.220568628145	1
0	2754	24.228942690739	0
0	2758	24.251710093633	1
0	2760	24.26001528761	0
0	2764	24.263806075872	1
0	2765	24.272084824339	0
0	2769	24.280066876771	1
0	2770	24.288310338414	0
0	2774	24.290384776451	1
0	2775	24.29860600326	0
0	2779	24.334574059253	1
0	2780	24.342701400586	0
0	2787	24.416977867911	1
0	2788	24.424810503564	0
0	2793	24.516679827975	1
0	2794	24.524125841707	0
0	2799	24.585413825665	1
0	2801	24.591665455161	2
0	2803	24.593432239298	1
0	2806	24.601541005928	0
0	2810	24.647838480138	1
0	2811	24.656618539299	0
0	2816	24.684264672275	1
0	2818	24.693227938062	0
0	2823	24.700474627949	1
0	2825	24.707556729689	2
0	2826	24.709400320017	1
0	2830	24.717169801731	2
0	2831	24.718305457033	1
0	2834	24.727190180463	0
0	2839	24.780260435405	1
0	2840	24.7890068563	0
0	2844	24.841210402664	1
0	2845	24.849982135167	0
0	2849	24.866424399327	1
0	2850	24.875206645714	0
0	2854	24.897526245281	1
0	2855	24.906321495474	0
0	2862	24.939195157313	1
0	2863	24.948007889922	0
0	2868	25.03095832746	1
0	2869	25.03980980593	0
0	2873	25.041081265645	1
0	2874	25.049937039276	0
0	2878	25.052543481905	1
0	2880	25.060367270424	2
0	2881	25.061404123987	1
0	2885	25.069380985403	2
0	2886	25.070268533199	1
0	2889	25.07913671435	0
0	2893	25.102858014946	1
0	2895	25.10952504611	2
0	2896	25.111740091047	1
0	2899	25.120625961691	0
0	2904	25.131497815635	1
0	2905	25.140392138685	0
0	2910	25.195519033334	1
0	2911	25.204440855637	0
0	2916	25.336550830755	1
0	2918	25.338097145333	2
0	2919	25.345471376723	1
0	2922	25.35436030163	0
0	2926	25.410574884154	1
0	2927	25.419239650759	0
0	2932	25.479292034875	1
0	2933	25.487732147263	0
0	2937	25.548340189658	1
0	2939	25.553198573576	2
0	2940	25.556566001435	1
0	2943	25.564767006515	0
0	2948	25.670223171609	1
0	2950	25.678096122349	0
0	2954	25.682483076241	1
0	2956	25.686838505404	2
0	2958	25.690353524504	1
0	2961	25.698230504887	0
0	2965	25.756004328712	1
0	2966	25.76393622171	0
0	2972	25.796173916845	1
0	2973	25.804139788247	0
0	2979	25.86195522976	1
0	2980	25.869977376994	0
0	2985	25.905865983696	1
0	2987	25.908200370878	2
0	2988	25.913926141161	1
0	2991	25.921988519633	0
0	2997	26.071625190919	1
0	2998	26.079506493024	0
0	3002	26.083357983382	1
0	3003	26.091226137969	0
0	3007	26.100633962567	1
0	3008	26.108482837709	0
0	3012	26.117541698309	1
0	3013	26.125371796218	0
0	3017	26.131318095161	1
0	3018	26.139132959706	0
0	3022	26.18786401912	1
0	3024	26.193148377825	2
0	3025	26.195616973561	1
0	3029	26.196404021064	2
0	3031	26.197232325785	3
0	3032	26.203361515954	2
0	3035	26.21109767363	1
0	3038	26.218825473774	0
0	3042	26.237789376896	1
0	3043	26.245488479557	0
0	3047	26.370417302672	1
0	3049	26.370881453891	2
0	3050	26.377976914356	1
0	3053	26.385528727349	0
0	3058	26.426301941602	1
0	3059	26.43380427895	0
0	3063	26.515801421826	1
0	3065	26.52321382031	0
0	3072	26.59269285755	1
0	3073	26.600720526975	0
0	3078	26.800491412328	1
0	3079	26.808048637456	0
0	3083	26.817036906387	1
0	3084	26.824559032369	0
0	3090	26.877821430055	1
0	3091	26.885460455565	0
0	3095	26.921965457303	1
0	3096	26.929830133334	0
0	3100	26.931987567057	1
0	3102	26.935292167592	2
0	3103	26.939905342384	1
0	3106	26.9478655775	0
0	3110	26.971204491597	1
0	3111	26.979337125921	0
0	3115	27.004444879075	1
0	3116	27.012768974236	0
0	3120	27.047873165648	1
0	3122	27.056150142112	0
0	3131	27.237574354802	1
0	3132	27.245475602137	0
0	3136	27.31502493876	1
0	3137	27.322782412835	0
0	3144	27.419602767391	1
0	3145	27.427373211935	0
0	3149	27.466233360154	1
0	3150	27.474047456009	0
0	3154	27.48686985349	1
0	3155	27.494703424286	0
0	3159	27.499190644601	1
0	3160	27.507035889046	0
0	3165	27.66213669346	1
0	3166	27.670139663902	0
0	3171	27.692500657891	1
0	3173	27.700501297039	0
0	3177	27.705679513533	1
0	3178	27.713725711486	0
0	3183	27.811223952252	1
0	3184	27.819155230593	0
0	3193	27.960333986026	1
0	3194	27.968068542927	0
0	3198	27.994224086129	1
0	3199	28.001915285101	0
0	3203	28.136056095798	1
0	3204	28.143570992655	0
0	3210	28.198917945577	1
0	3213	28.206629609925	0
0	3218	28.27919088373	1
0	3219	28.287210097418	0
0	3223	28.312483008062	1
0	3224	28.320455642594	0
0	3229	28.36225619023	1
0	3230	28.370160187414	0
0	3235	28.423900213382	1
0	3236	28.431720824231	0
0	3242	28.527588286537	1
0	3243	28.535272537239	0
0	3247	28.562060013429	1
0	3248	28.569699977531	0
0	3252	28.579397678618	1
0	3253	28.587015561012	0
0	3259	28.672469260767	1
0	3260	28.680021543918	0
0	3265	28.766974345672	1
0	3266	28.774612813254	0
0	3270	28.777779156502	1
0	3271	28.785427603055	0
0	3275	28.825879752832	1
0	3276	28.833572941781	0
0	3280	28.900091876965	1
0	3282	28.900758139206	2
0	3283	28.907855133041	1
0	3286	28.915625792579	0
0	3293	29.083741005744	1
0	3294	29.091683267208	0
0	3298	29.105067796346	1
0	3299	29.11303138175	0
0	3305	29.204205241576	1
0	3307	29.2122219463	2
0	3308	29.212269473442	1
0	3311	29.22034200429	0
0	3317	29.288025392791	1
0	3318	29.296176726888	0
0	3322	29.488422875535	1
0	3324	29.496790282882	0
0	3329	29.698515846847	1
0	3330	29.707442727996	0
0	3334	29.731055713965	1
0	3335	29.740050596092	0
0	3341	29.801089498813	1
0	3342	29.81023430865	0
0	3347	29.835486672736	1
0	3349	29.835689488802	2
0	3350	29.844651971189	1
0	3353	29.853807478456	0
0	3357	29.8866988432	1
0	3358	29.895809699082	0
0	3362	29.902398738103	1
0	3363	29.911493033059	0
0	3367	29.925388303992	1
0	3368	29.934458456902	0
0	3372	29.951811665407	1
0	3374	29.959172917273	2
0	3375	29.96085422818	1
0	3378	29.969887387607	0
0	3382	29.987123300773	1
0	3383	29.996129253634	0
0	3388	30.07345496976	1
0	3389	30.082372652951	0
0	3393	30.091134798523	1
0	3394	30.100034618033	0
0	3398	30.101661462933	1
0	3399	30.110550680263	0
0	3403	30.127297195064	1
0	3404	30.136160698118	0
0	3408	30.163099460964	1
0	3410	30.169528472828	2
0	3411	30.171927300025	1
0	3414	30.180746389405	0
0	3418	30.182229041746	1
0	3419	30.191037942496	0
0	3424	30.379610705124	1
0	3426	30.38475912331	2
0	3427	30.388228839666	1
0	3430	30.396838832997	0
0	3434	30.410813064364	1
0	3435	30.419401796058	0
0	3439	30.509907581419	1
0	3440	30.518404249719	0
0	3444	30.552014396561	1
0	3445	30.56047254047	0
0	3455	30.73246144681	1
0	3456	30.740184779038	0
0	3461	30.753511111712	1
0	3462	30.76134420378	0
0	3468	30.915509260057	1
0	3469	30.923512323325	0
0	3475	30.993273978075	1
0	3476	31.001176590263	0
0	3481	31.111793357106	1
0	3482	31.119547633353	0
0	3486	31.13829143607	1
0	3487	31.146013306479	0
0	3492	31.212662923787	1
0	3493	31.220295271692	0
0	3498	31.234920390757	1
0	3499	31.242537885378	0
0	3503	31.255179534874	1
0	3504	31.262798636813	0
0	3509	31.280679076566	1
0	3512	31.284908051154	2
0	3513	31.28830020255	1
0	3517	31.295921933675	0
0	3522	31.30287274641	1
0	3523	31.310495634908	0
0	3527	31.329021129093	1
0	3528	31.336646095216	0
0	3532	31.403652737303	1
0	3533	31.411283639529	0
0	3537	31.41686626051	1
0	3538	31.424498214686	0
0	3545	31.547194850626	1
0	3547	31.554301126196	2
0	3548	31.554837196031	1
0	3551	31.562480151646	0
0	3555	31.573976246752	1
0	3557	31.57672161538	2
0	3558	31.581620730971	1
0	3561	31.589265825912	0
0	3566	31.72946460433	1
0	3567	31.737121529835	0
0	3572	31.79412199727	1
0	3574	31.794824326832	2
0	3576	31.795398989342	3
0	3577	31.801784108218	2
0	3580	31.809446834124	1
0	3583	31.817110175135	0
0	3588	31.833520173553	1
0	3589	31.841185447632	0
0	3595	31.907130381453	1
0	3596	31.914801572419	0
0	3600	31.925292492398	1
0	3601	31.932965144665	0
0	3605	31.933239151381	1
0	3606	31.940912443201	0
0	3613	32.040458424607	1
0	3615	32.044601538253	2
0	3616	32.048140355951	1
0	3619	32.055822907037	0
0	3623	32.05902717377	1
0	3625	32.063720901134	2
0	3626	32.066710603325	1
0	3629	32.074394652985	0
0	3635	32.120289839514	1
0	3636	32.127978216166	0
0	3640	32.176034210609	1
0	3641	32.183727094283	0
0	3645	32.259182499643	1
0	3646	32.266882115817	0
0	3650	32.273258700767	1
0	3651	32.280959457855	0
0	3655	32.301553427849	1
0	3656	32.309256479323	0
0	3660	32.328836313587	1
0	3661	32.336541578694	0
0	3665	32.39857976815	1
0	3667	32.406200257079	0
0	3671	32.439330684695	1
0	3672	32.447044927932	0
0	3677	32.527811675855	1
0	3678	32.535533123642	0
0	3682	32.626314554135	1
0	3683	32.634044038348	0
0	3687	32.650138483265	1
0	3688	32.657869913683	0
0	3694	32.715060765045	1
0	3696	32.720137469242	2
0	3697	32.722797504019	1
0	3700	32.730534876096	0
0	3704	32.735895470678	1
0	3705	32.743633914807	0
0	3709	32.75069056434	1
0	3711	32.757738958561	2
0	3712	32.758430219786	1
0	3715	32.766170509051	0
0	3721	32.802555418812	1
0	3723	32.805403745435	2
0	3724	32.81029932358	1
0	3727	32.818043863211	0
0	3731	32.837762480637	1
0	3733	32.845509272602	0
0	3737	32.855710546556	1
0	3739	32.863458811203	0
0	3743	32.889175690155	1
0	3744	32.896926702192	0
0	3748	32.904374268116	1
0	3749	32.912126528555	0
0	3753	32.935046222596	1
0	3754	32.942801003636	0
0	3758	32.965499445362	1
0	3759	32.973256730651	0
0	3764	33.002678604951	1
0	3766	33.010438949773	0
0	3770	33.060165674338	1
0	3771	33.067918287571	0
0	3778	33.08933686289	1
0	3779	33.097079581582	0
0	3784	33.148811675457	1
0	3785	33.156584598419	0
0	3789	33.244553788339	1
0	3791	33.25225608302	0
0	3795	33.261223955258	1
0	3796	33.268914083463	0
0	3800	33.289632479445	1
0	3801	33.297301962432	0
0	3805	33.313528378821	1
0	3806	33.321180581675	0
0	3811	33.401214111072	1
0	3812	33.409096282346	0
0	3816	33.411206887968	1
0	3817	33.419092622442	0
0	3821	33.446807291249	1
0	3822	33.454705746253	0
0	3827	33.524494566351	1
0	3829	33.529011428555	2
0	3831	33.531937823502	3
0	3832	33.532420923116	2
0	3836	33.540350137757	1
0	3839	33.548282213367	0
0	3843	33.585884168927	1
0	3844	33.593832713891	0
0	3848	33.645584837457	1
0	3849	33.653555079652	0
0	3853	33.657155886055	1
0	3854	33.66513034727	0
0	3862	33.732566647636	1
0	3863	33.740487008354	0
0	3870	33.826522569347	1
0	3871	33.834322217606	0
0	3879	33.901643209033	1
0	3880	33.909707870932	0
0	3884	33.958827740062	1
0	3885	33.966879415227	0
0	3889	33.973843994076	1
0	3890	33.981883057754	0
0	3894	33.983667088371	1
0	3895	33.991697923421	0
0	3899	34.007072411033	1
0	3901	34.010693366539	2
0	3902	34.015083707588	1
0	3905	34.023088338227	0
0	3909	34.05498139884	1
0	3911	34.055468169307	2
0	3912	34.062952996526	1
0	3916	34.070918026848	0
0	3920	34.071397361701	1
0	3921	34.079355446963	0
0	3925	34.182701561173	1
0	3926	34.190569223457	0
0	3930	34.20587106255	1
0	3932	34.213033713619	2
0	3933	34.21372015983	1
0	3938	34.221562987723	0
0	3942	34.224007121664	1
0	3943	34.231892200186	0
0	3948	34.299530201725	1
0	3949	34.307746103786	0
0	3954	34.330326165914	1
0	3955	34.338000837609	0
0	3962	34.459948596353	1
0	3964	34.462230498828	2
0	3965	34.467803621873	1
0	3968	34.475669849494	0
0	3973	34.525025173045	1
0	3974	34.532973978943	0
0	3979	34.605446065499	1
0	3980	34.613513903954	0
0	3984	34.639193614182	1
0	3986	34.643197556979	2
0	3987	34.647312471659	1
0	3990	34.655443699537	0
0	3994	34.674894163304	1
0	3995	34.683067699407	0
0	3999	34.711471430261	1
0	4000	34.719701756917	0
0	4005	34.818626415282	1
0	4006	34.827027749575	0
0	4010	34.836948979874	1
0	4011	34.845378398556	0
0	4015	34.870460573703	1
0	4016	34.878903674734	0
0	4020	34.913543948293	1
0	4021	34.922004705103	0
0	4026	34.940314165848	1
0	4027	34.948785930469	0
0	4036	35.100554607329	1
0	4037	35.109415929494	0
0	4041	35.110119409624	1
0	4042	35.11897253622	0
0	4048	35.161981664329	1
0	4049	35.170790615554	0
0	4053	35.194227088887	1
0	4055	35.196027230374	2
0	4056	35.203008795592	1
0	4059	35.211783111708	0
0	4064	35.272569651321	1
0	4065	35.280970572438	0
0	4070	35.300710911412	1
0	4071	35.308917928646	0
0	4077	35.341355829471	1
0	4078	35.349467427207	0
0	4082	35.377025043611	1
0	4083	35.385078348122	0
0	4087	35.38573480163	1
0	4088	35.393752999483	0
0	4092	35.424147468723	1
0	4094	35.431911747998	2
0	4095	35.432014418413	1
0	4099	35.439851093594	0
0	4104	35.489101516954	1
0	4105	35.497249674823	0
0	4109	35.541515972202	1
0	4111	35.549985858957	0
0	4115	35.557774515726	1
0	4116	35.566215749769	0
0	4121	35.596516634701	1
0	4123	35.603414296297	2
0	4124	35.604966324729	1
0	4127	35.613424514094	0
0	4131	35.623117174894	1
0	4133	35.631593679697	0
0	4137	35.648051791538	1
0	4139	35.656002392378	2
0	4140	35.656553586773	1
0	4143	35.665064039659	0
0	4151	35.812643866855	1
0	4154	35.821280926372	0
0	4158	35.821353802684	1
0	4160	35.829916166737	0
0	4164	35.831713061797	1
0	4166	35.838642402868	2
0	4167	35.84018825095	1
0	4170	35.848593429245	0
0	4176	35.955804399373	1
0	4177	35.963898594262	0
0	4181	35.999051304844	1
0	4182	36.007190618805	0
0	4186	36.038293155824	1
0	4188	36.043133029439	2
0	4189	36.046473847928	1
0	4192	36.054663219125	0
0	4196	36.073657171689	1
0	4197	36.081875515058	0
0	4204	36.194357993214	1
0	4205	36.202707495789	0
0	4209	36.301229077735	1
0	4211	36.305559927457	2
0	4212	36.309698255949	1
0	4215	36.318177064934	0
0	4219	36.336240137944	1
0	4220	36.344749271563	0
0	4224	36.4168067379	1
0	4225	36.425409263594	0
0	4230	36.481204836654	1
0	4231	36.489883499302	0
0	4235	36.58603665033	1
0	4236	36.594842178906	0
0	4240	36.611496774673	1
0	4242	36.616402750804	2
0	4243	36.620333676509	1
0	4246	36.629181519953	0
0	4251	36.733596232844	1
0	4252	36.742400318198	0
0	4258	36.761379178502	1
0	4259	36.770170589245	0
0	4264	36.819942363249	1
0	4265	36.828707176575	0
0	4270	36.851991040512	1
0	4271	36.860741366435	0
0	4276	36.912126729703	1
0	4277	36.920850000509	0
0	4281	36.955525228804	1
0	4282	36.964229078279	0
0	4287	36.975379276305	1
0	4288	36.984074269666	0
0	4294	37.038361334836	1
0	4295	37.047028353244	0
0	4299	37.109050501313	1
0	4301	37.110422606335	2
0	4303	37.117686335106	1
0	4306	37.126336599114	0
0	4310	37.16096106449	1
0	4311	37.169759576502	0
0	4316	37.226687169394	1
0	4318	37.234475697494	0
0	4322	37.240410345494	1
0	4323	37.248210939058	0
0	4328	37.313238356073	1
0	4330	37.321298860241	0
0	4334	37.321988108484	1
0	4336	37.322478830304	2
0	4337	37.330081009135	1
0	4340	37.338204106925	0
0	4344	37.402056636444	1
0	4345	37.410458552467	0
0	4349	37.420485783425	1
0	4350	37.428866296016	0
0	4357	37.580398532264	1
0	4358	37.588281095123	0
0	4362	37.593653187334	1
0	4363	37.601497119359	0
0	4367	37.624290459577	1
0	4368	37.632046531813	0
0	4372	37.659291741383	1
0	4373	37.666949817281	0
0	4378	37.703991811517	1
0	4380	37.711562258652	0
0	4384	37.857645572656	1
0	4385	37.865421475105	0
0	4392	37.955144418248	1
0	4393	37.962944558217	0
0	4397	37.995945346446	1
0	4398	38.003671528091	0
0	4403	38.02649822451	1
0	4405	38.03162581916	2
0	4406	38.034238933435	1
0	4409	38.041998644076	0
0	4414	38.18332294778	1
0	4415	38.191467730405	0
0	4420	38.231923492333	1
0	4421	38.240202202259	0
0	4426	38.274795247464	1
0	4427	38.283195808087	0
0	4432	38.374192220206	1
0	4433	38.382309699843	0