version 3
run monitoring-exponential-2-20230106-17:25:37-1831
attr configname monitoring-exponential
attr datetime 20230106-17:25:37
attr datetimef 20230106-172537
attr experiment monitoring-exponential
attr inifile omnetpp.ini
attr iterationvars ""
attr iterationvarsd ""
attr iterationvarsf ""
attr measurement ""
attr network AerocomSys
attr processid 1831
attr repetition 2
attr replication #2
attr resultdir results
attr runnumber 2
attr seedset 2
config description "aircraft in monitoring mode, new capacity selected with exponential distrbution"
config **.X 0.1
config **.exponentialMean 1
config **.generationMode 1
config **.operationMode 0
config network AerocomSys
config repeat 10
config seed-set 2
config num-rngs 3
config **.size 100
config **.minCapacity 6000
config **.maxCapacity 15000
config sim-time-limit 300s
config warmup-period 10s
config rng-class omnetpp::cMersenneTwister
config **.nDL 15
config **.nAC 1
config **.kMean 0.05+2*0.001
config **.PacketGenerator.rng-0 0
config **.LinkSelector.rng-1 1
config **.DataLink[*].rng-2 2

vector 0 AerocomSys.airCraft[0].linkSelector queueLengthStatistic:vector ETV
attr recordingmode vector
attr source queueLength
attr title "queue length statistic"
vector 1 AerocomSys.airCraft[0].linkSelector serviceTimeStatistic:vector ETV
attr recordingmode vector
attr source serviceTime
attr title "service time statistic"
vector 2 AerocomSys.airCraft[0].linkSelector waitingTimeStatistic:vector ETV
attr recordingmode vector
attr source waitingTime
attr title "waiting time statistic"
vector 3 AerocomSys.controlTower responseTimeStatistic:vector ETV
attr recordingmode vector
attr source responseTime
attr title "response time statistic"
0	1085	10.010565707691	1
0	1087	10.015776462199	2
0	1089	10.017715824743	3
0	1090	10.018201587264	2
0	1093	10.025835872423	1
0	1096	10.033468564167	0
0	1100	10.096578311896	1
0	1101	10.104196269975	0
0	1105	10.116282452145	1
0	1107	10.123896316527	0
0	1112	10.136230037179	1
0	1113	10.143839761766	0
0	1119	10.239605847359	1
0	1120	10.2471941899	0
0	1124	10.269366826729	1
0	1125	10.276949035827	0
0	1130	10.311876912649	1
0	1131	10.319450378015	0
0	1136	10.368265088367	1
0	1137	10.37582698654	0
0	1141	10.409408445007	1
0	1142	10.416961925505	0
0	1147	10.429665829589	1
0	1148	10.437215172434	0
0	1153	10.453512430924	1
0	1155	10.45480290755	2
0	1156	10.461056908809	1
0	1159	10.468599848846	0
0	1164	10.546383859535	1
0	1165	10.554096185101	0
0	1169	10.609336901204	1
0	1170	10.617255385402	0
0	1174	10.626156200228	1
0	1175	10.634131643402	0
0	1179	10.709022832695	1
0	1181	10.716005604185	2
0	1182	10.716991339412	1
0	1186	10.722815220936	2
0	1187	10.724954878006	1
0	1190	10.73291345776	0
0	1195	10.765835925306	1
0	1196	10.773769145632	0
0	1202	10.86479714872	1
0	1203	10.872669645182	0
0	1207	10.88097290172	1
0	1208	10.888835560817	0
0	1213	11.0045204596	1
0	1214	11.012308785962	0
0	1220	11.08209458709	1
0	1222	11.090069384618	0
0	1226	11.093563177087	1
0	1227	11.101537881899	0
0	1231	11.103844993439	1
0	1233	11.108583691087	2
0	1234	11.111819615132	1
0	1237	11.119794172358	0
0	1241	11.188093845843	1
0	1242	11.195961163821	0
0	1247	11.293297504992	1
0	1249	11.300915881977	0
0	1253	11.341994675932	1
0	1254	11.349503078879	0
0	1260	11.429665808761	1
0	1262	11.431883369575	2
0	1263	11.437369291429	1
0	1266	11.445112781961	0
0	1270	11.45071974354	1
0	1271	11.458533562428	0
0	1275	11.493561648534	1
0	1277	11.494913194215	2
0	1278	11.501533120989	1
0	1281	11.509504529054	0
0	1286	11.552271026926	1
0	1288	11.560242025176	0
0	1294	11.626381213309	1
0	1295	11.634351613039	0
0	1302	11.771303826369	1
0	1303	11.779273055952	0
0	1307	11.824254719543	1
0	1308	11.832223521671	0
0	1316	11.904428665035	1
0	1317	11.912396820032	0
0	1321	11.947645912807	1
0	1322	11.955613719016	0
0	1329	12.019822834832	1
0	1330	12.0277900586	0
0	1335	12.144745340714	1
0	1338	12.152223255955	0
0	1343	12.180483195989	1
0	1344	12.18798477935	0
0	1348	12.239199735286	1
0	1350	12.241470700514	2
0	1351	12.246775610813	1
0	1354	12.25436117917	0
0	1358	12.258813963434	1
0	1359	12.266414985188	0
0	1365	12.347086319581	1
0	1366	12.354802607521	0
0	1370	12.378173442781	1
0	1372	12.378886747151	2
0	1373	12.385931161182	1
0	1377	12.393699287915	0
0	1385	12.631824099456	1
0	1386	12.639808366931	0
0	1390	12.673351259113	1
0	1391	12.681359308496	0
0	1395	12.68852662425	1
0	1396	12.696525923609	0
0	1400	12.732027135872	1
0	1401	12.740001458733	0
0	1405	12.844486675794	1
0	1407	12.850717223798	2
0	1408	12.852397145289	1
0	1411	12.860303161775	0
0	1415	12.872693604881	1
0	1417	12.876064932431	2
0	1418	12.88058821886	1
0	1422	12.888478406542	0
0	1426	12.893330579334	1
0	1427	12.90121363318	0
0	1431	12.937791485702	1
0	1432	12.945649748735	0
0	1437	13.000682217485	1
0	1438	13.00850567857	0
0	1442	13.035237834032	1
0	1444	13.043042303917	0
0	1448	13.057790969294	1
0	1449	13.065583093993	0
0	1453	13.076443815517	1
0	1455	13.078918410248	2
0	1457	13.081030081211	3
0	1458	13.084225759449	2
0	1461	13.092003463838	1
0	1464	13.099776935606	0
0	1468	13.106352188599	1
0	1469	13.11411786388	0
0	1473	13.158603490686	1
0	1474	13.166340906518	0
0	1478	13.239776343402	1
0	1480	13.246680511011	2
0	1481	13.247470263582	1
0	1484	13.255160086412	0
0	1488	13.371036858283	1
0	1490	13.371643891599	2
0	1492	13.375359158724	3
0	1493	13.378661469263	2
0	1496	13.386282092591	1
0	1500	13.392201179327	2
0	1501	13.393898734518	1
0	1504	13.401511401278	0
0	1510	13.543922427083	1
0	1511	13.551461155192	0
0	1515	13.562584462583	1
0	1516	13.570118878141	0
0	1520	13.579664596515	1
0	1521	13.587195069401	0
0	1525	13.590004191654	1
0	1526	13.597532279816	0
0	1530	13.678805267111	1
0	1533	13.682410243096	2
0	1535	13.684040373918	3
0	1536	13.686312936219	2
0	1539	13.693818884079	1
0	1542	13.701323111875	0
0	1547	13.762594263768	1
0	1548	13.770082767615	0
0	1554	13.852555832396	1
0	1555	13.860111121839	0
0	1559	13.879183673077	1
0	1561	13.886803490401	0
0	1565	13.943623325276	1
0	1566	13.951403958307	0
0	1570	13.958293428934	1
0	1572	13.96611162585	0
0	1576	14.057309018251	1
0	1577	14.065338969858	0
0	1582	14.095885683647	1
0	1585	14.098204972139	2
0	1586	14.103972152818	1
0	1589	14.112070570256	0
0	1593	14.113511268717	1
0	1594	14.121623826271	0
0	1599	14.150272332271	1
0	1600	14.15843984678	0
0	1604	14.249588418326	1
0	1605	14.257693831236	0
0	1609	14.261672826049	1
0	1610	14.269760981431	0
0	1614	14.296028545448	1
0	1615	14.304068037064	0
0	1620	14.364336679557	1
0	1621	14.372425174612	0
0	1625	14.415083890684	1
0	1626	14.423376505113	0
0	1630	14.468907023819	1
0	1631	14.477361926846	0
0	1637	14.656866597765	1
0	1639	14.665262434272	0
0	1644	14.736594894428	1
0	1645	14.744936472311	0
0	1649	14.759376802467	1
0	1651	14.767703004845	0
0	1655	14.788490452559	1
0	1656	14.796797088448	0
0	1660	14.801721077858	1
0	1661	14.810018852165	0
0	1665	14.853453426645	1
0	1666	14.861716732503	0
0	1675	15.053637648568	1
0	1677	15.061443266196	0
0	1681	15.076312564424	1
0	1682	15.084047377334	0
0	1688	15.12230593489	1
0	1689	15.129901002843	0
0	1696	15.282019624722	1
0	1697	15.289787716849	0
0	1703	15.490011180105	1
0	1704	15.498132044236	0
0	1708	15.539812485745	1
0	1709	15.548003477131	0
0	1715	15.719891294912	1
0	1717	15.7274031563	0
0	1722	15.754966876931	1
0	1723	15.76253012229	0
0	1728	15.818465757863	1
0	1729	15.826170460546	0
0	1733	15.83386965769	1
0	1735	15.834887618907	2
0	1736	15.841609476991	1
0	1740	15.84894472072	2
0	1742	15.849367062039	1
0	1745	15.857142535641	0
0	1751	15.898287126582	1
0	1752	15.906177335647	0
0	1756	15.93662887551	1
0	1757	15.944611404669	0
0	1761	15.951557788018	1
0	1762	15.959572024175	0
0	1766	16.009222898818	1
0	1769	16.016430809541	2
0	1770	16.017119359563	1
0	1773	16.024999961475	0
0	1777	16.057919541964	1
0	1778	16.065719207389	0
0	1786	16.081637693062	1
0	1787	16.089430902485	0
0	1791	16.106611915395	1
0	1793	16.114488018802	0
0	1797	16.118221458106	1
0	1798	16.126136699092	0
0	1803	16.17192643716	1
0	1804	16.180027906486	0
0	1809	16.247560104749	1
0	1811	16.255906693306	0
0	1817	16.366151033454	1
0	1818	16.374241648496	0
0	1824	16.507635196415	1
0	1825	16.515447189056	0
0	1829	16.545564752702	1
0	1831	16.546956127157	2
0	1832	16.55330753995	1
0	1835	16.561036350315	0
0	1842	16.65774225776	1
0	1843	16.665287361098	0
0	1847	16.673123844512	1
0	1848	16.680642625976	0
0	1852	16.684317378875	1
0	1853	16.691817120467	0
0	1857	16.700412216231	1
0	1858	16.707884749375	0
0	1865	16.790750739808	1
0	1868	16.798734466518	2
0	1869	16.798813618629	1
0	1872	16.806942237813	0
0	1876	16.819095576795	1
0	1877	16.827394403365	0
0	1883	16.976456789623	1
0	1885	16.986047541088	0
0	1890	17.037884937267	1
0	1891	17.047485448466	0
0	1895	17.052679096438	1
0	1896	17.062259153431	0
0	1900	17.115680402207	1
0	1901	17.125174321541	0
0	1905	17.138578377087	1
0	1906	17.148041372033	0
0	1911	17.219760604148	1
0	1914	17.222369816815	2
0	1915	17.229115564854	1
0	1919	17.234665395166	2
0	1920	17.238458234628	1
0	1923	17.247788661809	0
0	1927	17.248808366546	1
0	1928	17.258125268367	0
0	1934	17.304445952585	1
0	1936	17.313690814998	0
0	1941	17.415938352659	1
0	1942	17.425042156816	0
0	1949	17.543383709298	1
0	1950	17.552331453891	0
0	1955	17.716873256962	1
0	1956	17.72557381479	0
0	1960	17.730468949106	1
0	1961	17.739113085991	0
0	1966	17.785963063893	1
0	1968	17.789038779047	2
0	1969	17.794384298445	1
0	1972	17.802772708246	0
0	1976	17.807353222459	1
0	1977	17.815691578775	0
0	1981	17.825192115154	1
0	1983	17.828372915611	2
0	1985	17.833462590336	1
0	1988	17.841701968007	0
0	1993	17.858914566928	1
0	1994	17.86705969401	0
0	1999	17.96282694713	1
0	2001	17.963240479888	2
0	2002	17.970608653014	1
0	2006	17.972006920795	2
0	2007	17.978364444208	1
0	2010	17.986094578187	0
0	2016	18.048814585523	1
0	2017	18.056346125131	0
0	2021	18.065147363759	1
0	2022	18.072677398695	0
0	2026	18.078653896901	1
0	2028	18.086182687989	0
0	2032	18.119969246785	1
0	2033	18.127494235597	0
0	2038	18.182136671534	1
0	2039	18.189655946274	0
0	2043	18.197254281708	1
0	2044	18.204772168235	0
0	2050	18.288919342677	1
0	2051	18.296428822795	0
0	2058	18.385756626296	1
0	2059	18.393257246067	0
0	2064	18.426735140066	1
0	2065	18.434352032295	0
0	2070	18.463009653259	1
0	2071	18.47076517293	0
0	2076	18.499384911526	1
0	2077	18.507284604925	0
0	2082	18.533860154941	1
0	2083	18.541755974411	0
0	2087	18.542072683357	1
0	2088	18.549960813681	0
0	2094	18.664616116495	1
0	2095	18.672199965565	0
0	2102	18.726133667493	1
0	2103	18.733863735182	0
0	2109	18.854483527371	1
0	2110	18.862212357872	0
0	2114	18.869069309605	1
0	2115	18.876820180157	0
0	2119	18.883451514034	1
0	2120	18.891204483975	0
0	2125	18.912370244803	1
0	2127	18.913355396439	2
0	2128	18.920127439492	1
0	2131	18.927885768215	0
0	2135	18.966033025071	1
0	2136	18.973798071587	0
0	2140	19.023729150545	1
0	2142	19.030517800827	2
0	2143	19.03150265679	1
0	2147	19.039277304239	0
0	2151	19.04692290798	1
0	2152	19.05469982022	0
0	2158	19.206557436421	1
0	2160	19.207306744936	2
0	2161	19.214357872148	1
0	2164	19.222159460982	0
0	2168	19.235765532988	1
0	2170	19.24107874415	2
0	2171	19.243570288183	1
0	2174	19.251376198401	0
0	2178	19.272116679838	1
0	2179	19.279926817543	0
0	2183	19.300338391531	1
0	2184	19.308152713144	0
0	2188	19.313396416473	1
0	2191	19.320076157414	2
0	2192	19.321212675474	1
0	2197	19.328205335263	2
0	2198	19.329030094614	1
0	2201	19.33684867441	0
0	2205	19.340271638205	1
0	2206	19.348091887642	0
0	2210	19.411267347005	1
0	2211	19.41909815752	0
0	2215	19.482336228435	1
0	2216	19.49017763952	0
0	2222	19.581647870407	1
0	2223	19.589504142892	0
0	2227	19.613275968582	1
0	2228	19.621136985859	0
0	2232	19.643541602584	1
0	2234	19.649806823732	2
0	2235	19.651407165627	1
0	2239	19.659273910905	0
0	2243	19.665499514258	1
0	2244	19.673368378576	0
0	2248	19.678108680226	1
0	2250	19.683423263981	2
0	2251	19.685915460161	1
0	2255	19.693673745498	0
0	2259	19.821885803535	1
0	2261	19.82519535404	2
0	2263	19.825607510184	3
0	2264	19.829716326646	2
0	2269	19.832954952073	3
0	2270	19.837553361747	2
0	2273	19.845396925107	1
0	2276	19.853247033062	0
0	2280	19.886351898083	1
0	2281	19.894236356653	0
0	2289	20.04708852616	1
0	2290	20.055015206481	0
0	2295	20.100892266689	1
0	2296	20.108827167432	0
0	2303	20.181271539318	1
0	2304	20.189218752646	0
0	2310	20.24056297193	1
0	2311	20.248519292101	0
0	2315	20.260714247327	1
0	2316	20.268673667379	0
0	2321	20.305596159086	1
0	2322	20.313562492034	0
0	2326	20.334884344487	1
0	2327	20.342855195	0
0	2331	20.414700459942	1
0	2332	20.422683647763	0
0	2337	20.453426254607	1
0	2338	20.461415442108	0
0	2343	20.543132159308	1
0	2344	20.551135279397	0
0	2348	20.586388218271	1
0	2349	20.594398074014	0
0	2355	20.640510018928	1
0	2356	20.648528318278	0
0	2361	20.722474518698	1
0	2362	20.730505639376	0
0	2366	20.732771120185	1
0	2368	20.738838667532	2
0	2369	20.740803854412	1
0	2373	20.748837847875	0
0	2377	20.806211117572	1
0	2378	20.81425537919	0
0	2383	20.837448292749	1
0	2384	20.845497467496	0
0	2389	20.854871940184	1
0	2391	20.862923858011	0
0	2396	20.896820085728	1
0	2397	20.904782138496	0
0	2401	20.992596428301	1
0	2402	21.000655559637	0
0	2406	21.119711655735	1
0	2407	21.127693860036	0
0	2411	21.163618315865	1
0	2413	21.171465540516	0
0	2418	21.297635452067	1
0	2420	21.302269886326	2
0	2421	21.305761575014	1
0	2424	21.313907619162	0
0	2428	21.336170047519	1
0	2429	21.34435649168	0
0	2434	21.461936308274	1
0	2436	21.468070125147	2
0	2437	21.469658920845	1
0	2440	21.477354758937	0
0	2445	21.500348838739	1
0	2446	21.508013474292	0
0	2450	21.563301637296	1
0	2451	21.571073916087	0
0	2457	21.712178469329	1
0	2458	21.71977664886	0
0	2462	21.74878596646	1
0	2465	21.750935382505	2
0	2466	21.756396071434	1
0	2470	21.756739103569	2
0	2472	21.76265037566	3
0	2473	21.764008660215	2
0	2476	21.771623735237	1
0	2479	21.779241298937	0
0	2485	21.873769468345	1
0	2486	21.881420572172	0
0	2492	21.947060270238	1
0	2494	21.950673844239	2
0	2496	21.952892963084	3
0	2497	21.954735622076	2
0	2500	21.962413522172	1
0	2503	21.970093973065	0
0	2507	21.982716116919	1
0	2508	21.990403321033	0
0	2512	22.01395164018	1
0	2513	22.021649257339	0
0	2517	22.075144748227	1
0	2518	22.082862847438	0
0	2522	22.163195626712	1
0	2523	22.170943389576	0
0	2527	22.176029352513	1
0	2528	22.183781458009	0
0	2532	22.204283288517	1
0	2534	22.211620470044	2
0	2535	22.21204497166	1
0	2538	22.219809290039	0
0	2542	22.22257533918	1
0	2543	22.230343235676	0
0	2548	22.31436011415	1
0	2549	22.322159338436	0
0	2553	22.410774775721	1
0	2554	22.418607181348	0
0	2559	22.452706316583	1
0	2561	22.45860543438	2
0	2562	22.460553241312	1
0	2565	22.468402889077	0
0	2569	22.47182509848	1
0	2570	22.479678661108	0
0	2574	22.489489679279	1
0	2575	22.497349384909	0
0	2579	22.53236041033	1
0	2580	22.540235064643	0
0	2584	22.545078711524	1
0	2585	22.552957811551	0
0	2591	22.6361157433	1
0	2592	22.644026812703	0
0	2596	22.668569971942	1
0	2597	22.676492501081	0
0	2604	22.789879822277	1
0	2606	22.79784548206	0
0	2610	22.809902957358	1
0	2611	22.817875781383	0
0	2615	22.861299959063	1
0	2616	22.869291231976	0
0	2623	22.985992380635	1
0	2624	22.99399335046	0
0	2630	23.068218793256	1
0	2631	23.076224141958	0
0	2636	23.148300849979	1
0	2638	23.155807984972	0
0	2645	23.210589363263	1
0	2646	23.218146141152	0
0	2652	23.274202412674	1
0	2653	23.281810571342	0
0	2657	23.302139081966	1
0	2658	23.309770026774	0
0	2662	23.309976034803	1
0	2664	23.317613396243	0
0	2668	23.324527745372	1
0	2669	23.332177049926	0
0	2674	23.373734803222	1
0	2675	23.381424771971	0
0	2680	23.414955318343	1
0	2681	23.422679685565	0
0	2686	23.514126432875	1
0	2687	23.521856863184	0
0	2692	23.648722816545	1
0	2693	23.656648235359	0
0	2698	23.782569779456	1
0	2699	23.790547091798	0
0	2705	23.828882652166	1
0	2706	23.836804451919	0
0	2710	23.885319948627	1
0	2711	23.893175135852	0
0	2716	23.917068435861	1
0	2717	23.924886640615	0
0	2721	23.93265423758	1
0	2723	23.940454414235	0
0	2728	23.976286374727	1
0	2729	23.984178343659	0
0	2733	23.993137963782	1
0	2734	24.001072443654	0
0	2738	24.022393033459	1
0	2739	24.030402412059	0
0	2744	24.074869788264	1
0	2745	24.082974646207	0
0	2749	24.090621728635	1
0	2750	24.098708744606	0
0	2755	24.157640728324	1
0	2757	24.161987535541	2
0	2758	24.165652702903	1
0	2761	24.173655799541	0
0	2765	24.180951350628	1
0	2766	24.188937549615	0
0	2772	24.322219323966	1
0	2773	24.330203049868	0
0	2779	24.381139876865	1
0	2780	24.389582938629	0
0	2784	24.39470031001	1
0	2785	24.403256669319	0
0	2790	24.43142370531	1
0	2792	24.432129156352	2
0	2794	24.43891385493	1
0	2797	24.446410031825	0
0	2802	24.524083362806	1
0	2803	24.531648763606	0
0	2807	24.5525000655	1
0	2808	24.560088848099	0
0	2812	24.612289364458	1
0	2814	24.615832282146	2
0	2815	24.619927817861	1
0	2819	24.627572663898	0
0	2824	24.741103966553	1
0	2825	24.748851675636	0
0	2829	24.779549657117	1
0	2831	24.786193424671	2
0	2832	24.787330582589	1
0	2835	24.795118265326	0
0	2839	24.811578090428	1
0	2840	24.819386906144	0
0	2847	24.906785668106	1
0	2848	24.914678583498	0
0	2852	24.920666113033	1
0	2853	24.928571440972	0
0	2861	25.074675269941	1
0	2862	25.082720986318	0
0	2867	25.117797296847	1
0	2869	25.125883219482	0
0	2874	25.16212347479	1
0	2875	25.17028573512	0
0	2879	25.174683342196	1
0	2881	25.17489933168	2
0	2882	25.182867577551	1
0	2886	25.18378704939	2
0	2888	25.18555955732	3
0	2889	25.191066196012	2
0	2893	25.199279273633	1
0	2896	25.207506887141	0
0	2900	25.237943934035	1
0	2901	25.246240675131	0
0	2905	25.265598635573	1
0	2906	25.273945536673	0
0	2910	25.284297402658	1
0	2911	25.292653516182	0
0	2915	25.316173450985	1
0	2916	25.324531748506	0
0	2923	25.433394064027	1
0	2924	25.44188933219	0
0	2928	25.467163950795	1
0	2929	25.475648281163	0
0	2933	25.521891281629	1
0	2934	25.530357945937	0
0	2938	25.581373267065	1
0	2939	25.589820813749	0
0	2945	25.700513151782	1
0	2946	25.708922665152	0
0	2951	25.773627962356	1
0	2952	25.782014304218	0
0	2956	25.787419171128	1
0	2957	25.795801156594	0
0	2965	25.87681588258	1
0	2967	25.884823825451	0
0	2973	25.892406077918	1
0	2974	25.900425808785	0
0	2978	25.91451235687	1
0	2979	25.922548862267	0
0	2984	25.990351704083	1
0	2985	25.998446294531	0
0	2990	26.039979588005	1
0	2991	26.048112644904	0
0	2995	26.055860170552	1
0	2996	26.064005613781	0
0	3000	26.081808584713	1
0	3001	26.089974348237	0
0	3005	26.134468196411	1
0	3006	26.1426755111	0
0	3010	26.201664775278	1
0	3011	26.209917985249	0
0	3016	26.254622268823	1
0	3017	26.262859300728	0
0	3021	26.297725288925	1
0	3022	26.305949199968	0
0	3027	26.334297825042	1
0	3028	26.342510635885	0
0	3032	26.381270544634	1
0	3033	26.389469142579	0
0	3038	26.450837013	1
0	3039	26.459014651827	0
0	3044	26.476347834298	1
0	3045	26.484517814005	0
0	3050	26.571081036614	1
0	3051	26.579222699673	0
0	3056	26.623412821158	1
0	3057	26.631538925757	0
0	3061	26.706496337406	1
0	3062	26.714597862701	0
0	3067	26.811712224243	1
0	3068	26.819882588248	0
0	3072	26.854723512155	1
0	3074	26.862854602789	0
0	3082	26.909566519359	1
0	3083	26.917570121048	0
0	3090	27.060790523468	1
0	3092	27.067948183167	2
0	3093	27.06884817453	1
0	3096	27.076893931978	0
0	3100	27.077441007855	1
0	3102	27.082273115057	2
0	3103	27.085474120352	1
0	3106	27.093495447461	0
0	3110	27.098909990406	1
0	3111	27.106911682834	0
0	3117	27.157750480903	1
0	3119	27.161410763821	2
0	3120	27.165667306267	1
0	3123	27.173572850209	0
0	3127	27.184260939644	1
0	3128	27.192140113794	0
0	3132	27.243596599172	1
0	3134	27.25139278658	0
0	3138	27.263249324746	1
0	3140	27.27101840993	0
0	3144	27.272420792419	1
0	3146	27.280177294013	0
0	3151	27.387224450576	1
0	3152	27.394826817473	0
0	3156	27.409519236461	1
0	3157	27.417092378112	0
0	3162	27.513232113368	1
0	3163	27.520804171223	0
0	3167	27.522621671567	1
0	3168	27.530204092903	0
0	3172	27.607805889689	1
0	3173	27.615483643284	0
0	3177	27.630612561666	1
0	3178	27.638316247099	0
0	3182	27.653602459837	1
0	3183	27.661332463334	0
0	3187	27.675357112033	1
0	3189	27.683112185651	0
0	3194	27.728595947876	1
0	3195	27.736413065493	0
0	3199	27.744387070209	1
0	3200	27.752222781994	0
0	3205	27.791882639878	1
0	3206	27.799774815051	0
0	3211	27.958143848081	1
0	3212	27.966193431288	0
0	3216	27.972110458208	1
0	3218	27.980146783943	0
0	3224	28.070588461478	1
0	3225	28.078829087581	0
0	3230	28.116913054725	1
0	3231	28.125214602182	0
0	3235	28.16085864781	1
0	3236	28.169218826443	0
0	3240	28.463049293298	1
0	3242	28.463598279381	2
0	3244	28.466401161387	3
0	3245	28.471551283007	2
0	3248	28.480048235871	1
0	3251	28.488540160834	0
0	3255	28.508533627683	1
0	3256	28.517008740313	0
0	3260	28.522634964805	1
0	3261	28.53110177931	0
0	3268	28.76132431081	1
0	3269	28.769566610605	0
0	3273	28.782225785488	1
0	3274	28.790430114254	0
0	3278	28.88253502412	1
0	3279	28.89056188743	0
0	3285	28.966469254409	1
0	3286	28.974353417528	0
0	3290	28.984372059329	1
0	3291	28.992226439165	0
0	3296	29.014865410488	1
0	3297	29.022669576014	0
0	3302	29.049251753226	1
0	3304	29.052620155492	2
0	3305	29.057000058466	1
0	3310	29.064735886877	0
0	3315	29.080440647755	1
0	3316	29.088138974061	0
0	3321	29.100361962828	1
0	3322	29.10802870209	0
0	3326	29.130293082167	1
0	3327	29.137912847249	0
0	3332	29.222593924746	1
0	3334	29.225032831597	2
0	3335	29.230072389339	1
0	3338	29.237539634541	0
0	3343	29.294771035233	1
0	3344	29.302370673328	0
0	3348	29.320908600796	1
0	3350	29.328580608851	0
0	3354	29.337906734638	1
0	3355	29.345626551568	0
0	3360	29.36839165474	1
0	3361	29.376198722842	0
0	3368	29.4362080845	1
0	3369	29.444169857232	0
0	3373	29.445083299387	1
0	3374	29.453040461057	0
0	3379	29.46511431091	1
0	3380	29.473061085197	0
0	3384	29.475373065413	1
0	3385	29.483314530363	0
0	3389	29.483979755228	1
0	3390	29.491916771324	0
0	3398	29.584768555973	1
0	3399	29.592690459112	0
0	3406	29.802733365211	1
0	3407	29.810689807363	0
0	3411	29.817378562276	1
0	3412	29.825337335928	0
0	3416	29.833150697179	1
0	3417	29.841111983267	0
0	3421	29.87337141764	1
0	3422	29.881339117908	0
0	3426	29.922152345013	1
0	3427	29.930127838479	0
0	3431	29.936182670185	1
0	3432	29.944160407947	0
0	3436	30.065973982122	1
0	3438	30.068664706243	2
0	3439	30.073972541396	1
0	3442	30.081972387379	0
0	3447	30.122224315298	1
0	3448	30.130188329884	0
0	3455	30.295899284845	1
0	3456	30.303674233212	0
0	3461	30.324836498036	1
0	3463	30.33252401364	0
0	3471	30.450463641588	1
0	3473	30.458077721299	0
0	3477	30.476785850131	1
0	3478	30.484373195055	0
0	3482	30.499659686422	1
0	3484	30.502267122761	2
0	3485	30.50722395098	1
0	3489	30.50858368368	2
0	3491	30.512990035455	3
0	3492	30.51478061384	2
0	3495	30.522329697882	1
0	3498	30.52987122587	0
0	3503	30.541275372029	1
0	3504	30.548798003301	0
0	3510	30.572427273414	1
0	3511	30.579919038312	0
0	3515	30.582927337986	1
0	3516	30.590408756057	0
0	3522	30.715795089015	1
0	3523	30.723523777257	0
0	3527	30.769263648698	1
0	3528	30.777184621081	0
0	3532	30.783082663032	1
0	3533	30.791054897506	0
0	3537	30.859765956271	1
0	3538	30.868035155541	0
0	3542	30.965403123127	1
0	3543	30.973717090621	0
0	3550	31.039888593156	1
0	3551	31.048117843748	0
0	3556	31.125224126805	1
0	3558	31.128719888435	2
0	3559	31.133586873371	1
0	3563	31.138669931851	2
0	3564	31.141952000929	1
0	3567	31.150319511514	0
0	3572	31.189296080628	1
0	3574	31.197671562206	0
0	3578	31.208770872579	1
0	3579	31.217140056712	0
0	3584	31.24233702577	1
0	3586	31.250695378019	0
0	3590	31.271421199068	1
0	3591	31.279770188426	0
0	3596	31.319754250227	1
0	3598	31.32755272429	0
0	3606	31.421723044283	1
0	3607	31.429593923402	0
0	3611	31.451001940908	1
0	3613	31.458901892988	0
0	3620	31.503290440824	1
0	3621	31.511242851457	0
0	3627	31.622782709552	1
0	3628	31.630857656595	0
0	3633	31.713355973509	1
0	3634	31.721526346937	0
0	3638	31.723223088439	1
0	3640	31.731403994097	0
0	3644	31.758961059936	1
0	3645	31.767180340911	0
0	3649	31.774471484705	1
0	3650	31.782707532985	0
0	3655	31.819887073691	1
0	3656	31.828172613573	0
0	3660	31.831781088208	1
0	3661	31.840079688024	0
0	3665	31.863239817909	1
0	3666	31.871573159504	0
0	3671	31.933098933085	1
0	3672	31.941323881081	0
0	3676	31.948635089675	1
0	3677	31.956835272855	0
0	3681	31.958765124942	1
0	3682	31.96694924089	0
0	3686	32.008852371451	1
0	3687	32.016957960523	0
0	3691	32.034058058656	1
0	3692	32.042124697452	0
0	3696	32.078603806575	1
0	3697	32.086602516621	0
0	3702	32.098011438628	1
0	3703	32.105980910058	0
0	3707	32.203078396053	1
0	3708	32.210893217618	0
0	3712	32.27949249195	1
0	3713	32.287198555831	0
0	3718	32.413893653749	1
0	3720	32.41392065727	2
0	3721	32.421415597815	1
0	3724	32.428927497001	0
0	3728	32.458311673183	1
0	3729	32.465774686992	0
0	3735	32.530689764871	1
0	3736	32.538210748476	0
0	3741	32.592280646647	1
0	3742	32.599920404784	0
0	3748	32.707462011072	1
0	3749	32.715334264161	0
0	3753	32.733353024714	1
0	3755	32.741279500472	0
0	3759	32.760501299928	1
0	3760	32.768485439471	0
0	3765	32.819176682049	1
0	3766	32.827288361911	0
0	3770	32.871088776498	1
0	3771	32.87931674156	0
0	3782	33.20007658698	1
0	3783	33.20791175353	0
0	3790	33.296891698437	1
0	3791	33.304795064749	0
0	3795	33.443521372118	1
0	3796	33.45153032017	0
0	3800	33.464271604887	1
0	3802	33.472189248279	2
0	3803	33.472295722573	1
0	3806	33.480325721777	0
0	3811	33.544596391945	1
0	3813	33.55267977753	0
0	3818	33.689330044654	1
0	3819	33.697522462311	0
0	3823	33.709557020188	1
0	3825	33.711607100067	2
0	3827	33.717764910111	1
0	3831	33.724383082722	2
0	3833	33.725709458488	3
0	3834	33.725979095195	2
0	3837	33.734199589944	1
0	3840	33.742426408917	0
0	3844	33.797986472289	1
0	3845	33.806262696721	0
0	3849	33.808166518427	1
0	3850	33.816450682668	0
0	3854	33.853400872159	1
0	3855	33.861720501438	0
0	3860	33.872324316705	1
0	3862	33.872966233851	2
0	3863	33.880673569253	1
0	3866	33.889091709812	0
0	3873	34.090482156293	1
0	3874	34.098603996029	0
0	3879	34.12815285049	1
0	3880	34.136517243121	0
0	3885	34.277540138529	1
0	3887	34.286418823558	0
0	3895	34.490498991086	1
0	3896	34.499257661215	0
0	3900	34.565573222338	1
0	3901	34.574290353538	0
0	3905	34.61565126027	1
0	3906	34.624340901429	0
0	3910	34.666390212143	1
0	3911	34.675043238973	0
0	3915	34.677818080559	1
0	3916	34.686453013569	0
0	3922	34.858259094541	1
0	3923	34.866618043539	0
0	3927	34.944463104047	1
0	3929	34.952696337898	0
0	3934	34.988715590561	1
0	3935	34.996885746618	0
0	3942	35.053517257452	1
0	3943	35.06197372223	0
0	3947	35.065987171528	1
0	3949	35.066364694647	2
0	3951	35.073813164804	3
0	3952	35.074437178842	2
0	3955	35.082882815976	1
0	3958	35.091324089706	0
0	3962	35.14019646854	1
0	3965	35.148608250101	0
0	3970	35.215227506936	1
0	3971	35.223701106016	0
0	3975	35.2761506907	1
0	3977	35.284588013476	0
0	3981	35.315116010056	1
0	3982	35.323530293605	0
0	3987	35.392197705194	1
0	3988	35.400566780903	0
0	3992	35.480619949188	1
0	3993	35.488937760488	0
0	3997	35.495935702926	1
0	3998	35.504244698383	0
0	4002	35.578051832937	1
0	4004	35.582500055138	2
0	4005	35.586313878733	1
0	4008	35.594571230089	0
0	4012	35.640178410095	1
0	4013	35.648405286257	0
0	4017	35.724440156985	1
0	4018	35.7324729469	0
0	4024	35.802414142167	1
0	4026	35.810135360136	0
0	4030	35.816626175998	1
0	4031	35.824293190791	0
0	4035	35.877217430705	1
0	4037	35.884661647316	0
0	4042	35.891673027965	1
0	4043	35.899124701257	0
0	4047	35.920790645353	1
0	4049	35.928517772203	0
0	4053	35.93655045185	1
0	4054	35.944435334324	0
0	4058	36.028736576722	1
0	4059	36.036750107729	0
0	4063	36.039793042354	1
0	4064	36.047800664392	0
0	4072	36.16852583211	1
0	4073	36.176465290708	0
0	4077	36.20120990688	1
0	4078	36.209132243724	0
0	4084	36.279343371021	1
0	4085	36.287225074915	0
0	4089	36.294765887337	1
0	4091	36.299433419133	2
0	4092	36.302639620027	1
0	4095	36.310509289354	0
0	4102	36.502840071059	1
0	4103	36.510550108146	0
0	4110	36.658285877348	1
0	4111	36.665908319524	0
0	4115	36.67240831975	1
0	4117	36.680022902346	0
0	4122	36.706125857882	1
0	4123	36.713721741	0
0	4127	36.74882027654	1
0	4128	36.75639261304	0
0	4133	36.861509225125	1
0	4134	36.869020107442	0
0	4138	36.931305610814	1
0	4140	36.935922296914	2
0	4141	36.938778927857	1
0	4144	36.946248244928	0
0	4152	37.06446766072	1
0	4154	37.071973466763	0
0	4159	37.209254955918	1
0	4160	37.216836470435	0
0	4164	37.256379403491	1
0	4165	37.263985889647	0
0	4169	37.276042038414	1
0	4171	37.281345332588	2
0	4172	37.28365899267	1
0	4175	37.291280009828	0
0	4179	37.309766445221	1
0	4180	37.317401421106	0
0	4185	37.350779378953	1
0	4186	37.358436386554	0
0	4191	37.410904783067	1
0	4193	37.418594320214	0
0	4198	37.497126352355	1
0	4200	37.502077056572	2
0	4201	37.504863023141	1
0	4204	37.512603951499	0
0	4208	37.620215144174	1
0	4209	37.62802011241	0
0	4213	37.632342214098	1
0	4214	37.64015397651	0
0	4219	37.69511860728	1
0	4220	37.702965730042	0
0	4224	37.74060278495	1
0	4225	37.748475728451	0
0	4229	37.749469364675	1
0	4230	37.757347361414	0
0	4234	37.774769560154	1
0	4236	37.777453247997	2
0	4237	37.782662011701	1
0	4241	37.7833030653	2
0	4242	37.790558983318	1
0	4245	37.798460482778	0
0	4249	37.838424375572	1
0	4251	37.838951456649	2
0	4253	37.84635343085	1
0	4256	37.854287069404	0
0	4260	37.884780417151	1
0	4261	37.892736343146	0
0	4267	38.002545422244	1
0	4268	38.010570437987	0
0	4272	38.039205844486	1
0	4273	38.047252613553	0
0	4277	38.096546077182	1
0	4279	38.098880189257	2
0	4280	38.104627107914	1
0	4283	38.112712990656	0
0	4287	38.119236172707	1
0	4289	38.127330841823	0
0	4293	38.150355789759	1
0	4294	38.158469239049	0
0	4299	38.263307241157	1
0	4300	38.271489593144	0
0	4304	38.308948947682	1
0	4305	38.317159475181	0
0	4311	38.486685321153	1
0	4312	38.494730864267	0
0	4316	38.497503808432	1
0	4318	38.50192683278	2
0	4319	38.505526610794	1
0	4322	38.513532631851	0
0	4326	38.557113497695	1
0	4327	38.56501326913	0
0	4331	38.572804724522	1
0	4333	38.580672735029	0
0	4338	38.595867932903	1
0	4339	38.603689721536	0
0	4343	38.63509278096	1
0	4345	38.640822738771	2
0	4346	38.642837192469	1
0	4349	38.650566507533	0
0	4356	38.772583680702	1
0	4357	38.780892459703	0
0	4361	38.786318610107	1
0	4363	38.794732487975	0
0	4367	38.800116393295	1