version 3
run monitoring-exponential-8-20230106-17:25:38-1878
attr configname monitoring-exponential
attr datetime 20230106-17:25:38
attr datetimef 20230106-172538
attr experiment monitoring-exponential
attr inifile omnetpp.ini
attr iterationvars ""
attr iterationvarsd ""
attr iterationvarsf ""
attr measurement ""
attr network AerocomSys
attr processid 1878
attr repetition 8
attr replication #8
attr resultdir results
attr runnumber 8
attr seedset 8
config description "aircraft in monitoring mode, new capacity selected with exponential distrbution"
config **.X 0.1
config **.exponentialMean 1
config **.generationMode 1
config **.operationMode 0
config network AerocomSys
config repeat 10
config seed-set 8
config num-rngs 3
config **.size 100
config **.minCapacity 6000
config **.maxCapacity 15000
config sim-time-limit 300s
config warmup-period 10s
config rng-class omnetpp::cMersenneTwister
config **.nDL 15
config **.nAC 1
config **.kMean 0.05+8*0.001
config **.PacketGenerator.rng-0 0
config **.LinkSelector.rng-1 1
config **.DataLink[*].rng-2 2

vector 0 AerocomSys.airCraft[0].linkSelector queueLengthStatistic:vector ETV
attr recordingmode vector
attr source queueLength
attr title "queue length statistic"
vector 1 AerocomSys.airCraft[0].linkSelector serviceTimeStatistic:vector ETV
attr recordingmode vector
attr source serviceTime
attr title "service time statistic"
vector 2 AerocomSys.airCraft[0].linkSelector waitingTimeStatistic:vector ETV
attr recordingmode vector
attr source waitingTime
attr title "waiting time statistic"
vector 3 AerocomSys.controlTower responseTimeStatistic:vector ETV
attr recordingmode vector
attr source responseTime
attr title "response time statistic"
0	861	10.127648026267	1
0	863	10.135756890623	0
0	867	10.255001118897	1
0	868	10.263101548958	0
0	872	10.334572272923	1
0	873	10.342665958732	0
0	877	10.354034606783	1
0	878	10.362126644722	0
0	882	10.47469981061	1
0	883	10.482781646822	0
0	887	10.537195831685	1
0	888	10.54527239423	0
0	894	10.692732995204	1
0	895	10.700796462725	0
0	900	10.900364587032	1
0	901	10.908166705708	0
0	905	10.947324236526	1
0	906	10.955037472267	0
0	910	11.039772139199	1
0	912	11.047316182017	0
0	917	11.167441488791	1
0	918	11.175383861446	0
0	922	11.178913772018	1
0	923	11.186902473318	0
0	927	11.190624260476	1
0	929	11.198646093466	0
0	934	11.279688908001	1
0	935	11.287703338544	0
0	939	11.301638765497	1
0	940	11.309651373815	0
0	945	11.505266914435	1
0	947	11.509730383803	2
0	948	11.513262657445	1
0	951	11.521257739664	0
0	955	11.535870413922	1
0	956	11.543863628362	0
0	960	11.558660384262	1
0	962	11.563995825162	2
0	963	11.566651716751	1
0	966	11.574642389542	0
0	975	11.722496237059	1
0	976	11.730474066352	0
0	980	11.746933991361	1
0	981	11.754909810427	0
0	987	11.91350781444	1
0	988	11.921340164917	0
0	992	11.96260794509	1
0	995	11.967668000986	2
0	996	11.970566066845	1
0	1000	11.978162389875	2
0	1001	11.978523537092	1
0	1004	11.986480355991	0
0	1008	11.990744029785	1
0	1009	11.998699848599	0
0	1013	12.04866452563	1
0	1014	12.056615607839	0
0	1019	12.067834810397	1
0	1021	12.071768010104	2
0	1022	12.075784326147	1
0	1026	12.083484710612	2
0	1027	12.0837331925	1
0	1030	12.091681409615	0
0	1037	12.225028032945	1
0	1038	12.232964727224	0
0	1046	12.35485490348	1
0	1048	12.360239195889	2
0	1049	12.362702761146	1
0	1052	12.370542041329	0
0	1059	12.42453709435	1
0	1061	12.432309441652	0
0	1065	12.437435044228	1
0	1066	12.445193573893	0
0	1070	12.44844279185	1
0	1071	12.45618956766	0
0	1075	12.485479817138	1
0	1076	12.493187305717	0
0	1081	12.592660004047	1
0	1083	12.6002560133	0
0	1089	12.626392847884	1
0	1091	12.633954435392	0
0	1095	12.676783464218	1
0	1096	12.6842942092	0
0	1102	12.760913568684	1
0	1103	12.768590261732	0
0	1107	12.770840424903	1
0	1109	12.771584299958	2
0	1111	12.778551682619	1
0	1115	12.780026545093	2
0	1116	12.786290005991	1
0	1119	12.794055681689	0
0	1124	12.846234020474	1
0	1125	12.853796996141	0
0	1129	12.897211185319	1
0	1130	12.905027126398	0
0	1134	12.915911267224	1
0	1135	12.923792096486	0
0	1139	12.926116319507	1
0	1140	12.933996329479	0
0	1144	12.97984114632	1
0	1145	12.987716845921	0
0	1149	13.006370411694	1
0	1150	13.014243984577	0
0	1155	13.05216711115	1
0	1156	13.060037015443	0
0	1163	13.246526627147	1
0	1164	13.254381000044	0
0	1168	13.26018309289	1
0	1169	13.268036376795	0
0	1174	13.336054974546	1
0	1175	13.343902213779	0
0	1179	13.34454180086	1
0	1180	13.35238836453	0
0	1185	13.420064501191	1
0	1186	13.427905058276	0
0	1191	13.505094924062	1
0	1192	13.512928729375	0
0	1197	13.546163425585	1
0	1198	13.55399397405	0
0	1202	13.583490221214	1
0	1204	13.591309858325	0
0	1208	13.591341535417	1
0	1210	13.599106292323	0
0	1215	13.633804688263	1
0	1217	13.638906953102	2
0	1219	13.641497226252	1
0	1222	13.649201184769	0
0	1228	13.806286648908	1
0	1229	13.814096631598	0
0	1234	13.835971022754	1
0	1235	13.843778665413	0
0	1241	13.895797568366	1
0	1242	13.903600499133	0
0	1248	14.142485582057	1
0	1249	14.150269143793	0
0	1254	14.175934125776	1
0	1255	14.183715068657	0
0	1260	14.198636324811	1
0	1261	14.206415491226	0
0	1265	14.234783382651	1
0	1266	14.242559722202	0
0	1270	14.263373788591	1
0	1271	14.271147893697	0
0	1275	14.279969051362	1
0	1276	14.287741860076	0
0	1280	14.308434809976	1
0	1282	14.316205396003	0
0	1286	14.325645464874	1
0	1287	14.333414707661	0
0	1291	14.339953226837	1
0	1293	14.341302455169	2
0	1294	14.3477213533	1
0	1298	14.348933243306	2
0	1299	14.35548887381	1
0	1302	14.36325578851	0
0	1307	14.505198155158	1
0	1308	14.512953412043	0
0	1312	14.530657780999	1
0	1313	14.538411058831	0
0	1318	14.559542156848	1
0	1319	14.567293190635	0
0	1324	14.615321592557	1
0	1325	14.623068296478	0
0	1330	14.675928161032	1
0	1331	14.683670165863	0
0	1335	14.698205979689	1
0	1336	14.705946258656	0
0	1340	14.723795900872	1
0	1341	14.731534198337	0
0	1345	14.78229641056	1
0	1347	14.789084079365	2
0	1348	14.790030181967	1
0	1351	14.797763355425	0
0	1355	14.8122454111	1
0	1356	14.819976867466	0
0	1360	14.846768111884	1
0	1361	14.854496901383	0
0	1366	14.895168103668	1
0	1367	14.902893157381	0
0	1372	14.931873393882	1
0	1373	14.93959561688	0
0	1378	15.090378509031	1
0	1380	15.093852991419	2
0	1381	15.098088531884	1
0	1384	15.105797962279	0
0	1389	15.192729807921	1
0	1390	15.200431973252	0
0	1398	15.291103950037	1
0	1399	15.300233167041	0
0	1404	15.349108722246	1
0	1406	15.358278247797	0
0	1410	15.368919371902	1
0	1411	15.378105602926	0
0	1415	15.450559707556	1
0	1416	15.459261159163	0
0	1420	15.511630525536	1
0	1421	15.520001521701	0
0	1425	15.555602373239	1
0	1426	15.563750565177	0
0	1430	15.565281877512	1
0	1432	15.573382607145	0
0	1436	15.640170467436	1
0	1437	15.647921871415	0
0	1443	15.683748812499	1
0	1444	15.691486088937	0
0	1448	15.703342155563	1
0	1449	15.711119019723	0
0	1453	15.769820072922	1
0	1454	15.777734325836	0
0	1459	15.839250332735	1
0	1461	15.847313355854	0
0	1466	15.911408088255	1
0	1467	15.919631770947	0
0	1472	16.043897625469	1
0	1473	16.052433599809	0
0	1479	16.122614574475	1
0	1480	16.131416185866	0
0	1489	16.369907663623	1
0	1490	16.37857400905	0
0	1494	16.420048181043	1
0	1495	16.428604032204	0
0	1505	16.761394405698	1
0	1506	16.769266936429	0
0	1511	16.789167250277	1
0	1512	16.796988954784	0
0	1516	16.840117889412	1
0	1517	16.84784803713	0
0	1521	16.924123982628	1
0	1523	16.931707765696	0
0	1531	17.060276643288	1
0	1534	17.063327178818	2
0	1536	17.064463023041	3
0	1537	17.068039447985	2
0	1540	17.07583573607	1
0	1544	17.083665943953	0
0	1549	17.205649378348	1
0	1550	17.214091134334	0
0	1554	17.248150813112	1
0	1555	17.256814094225	0
0	1559	17.281474831279	1
0	1560	17.290146525868	0
0	1565	17.299128594353	1
0	1566	17.307773085653	0
0	1572	17.357735744685	1
0	1573	17.366291137422	0
0	1578	17.419970741819	1
0	1579	17.428433509656	0
0	1583	17.519888677566	1
0	1584	17.528206859813	0
0	1588	17.58105985852	1
0	1589	17.589291936343	0
0	1593	17.592302572284	1
0	1594	17.600519018439	0
0	1600	17.63446262582	1
0	1601	17.642622041752	0
0	1606	17.681007437144	1
0	1607	17.689162737399	0
0	1611	17.704842076222	1
0	1613	17.712995270531	0
0	1618	17.750950514451	1
0	1619	17.759099637863	0
0	1623	17.806272062275	1
0	1624	17.814416306731	0
0	1630	17.953002668983	1
0	1631	17.961134001122	0
0	1636	18.056248507301	1
0	1637	18.064370778303	0
0	1641	18.160154399425	1
0	1642	18.168267571728	0
0	1646	18.170251008151	1
0	1647	18.178363297413	0
0	1652	18.232825213998	1
0	1653	18.24093203486	0
0	1657	18.252072321677	1
0	1658	18.260177462004	0
0	1663	18.319944589915	1
0	1665	18.328043809624	0
0	1669	18.331557667644	1
0	1670	18.33965587519	0
0	1674	18.351116229355	1
0	1675	18.359212732804	0
0	1679	18.428382547866	1
0	1680	18.436472326268	0
0	1685	18.563026685994	1
0	1686	18.571104772	0
0	1691	18.648753058459	1
0	1693	18.652047879147	2
0	1694	18.656823717646	1
0	1697	18.664893678342	0
0	1701	18.72087522392	1
0	1702	18.728939645443	0
0	1707	18.752579117601	1
0	1708	18.760640800184	0
0	1713	18.777777319418	1
0	1714	18.785836826423	0
0	1719	18.867443753627	1
0	1720	18.87549552847	0
0	1726	18.960908779572	1
0	1727	18.968952510467	0
0	1734	19.112937900407	1
0	1735	19.120968581388	0
0	1739	19.134423301344	1
0	1740	19.14245214147	0
0	1744	19.144359355489	1
0	1746	19.148449186146	2
0	1747	19.152387344586	1
0	1750	19.160414646212	0
0	1754	19.195879741286	1
0	1755	19.203903320521	0
0	1760	19.252649727465	1
0	1762	19.260668453108	0
0	1767	19.287447972347	1
0	1768	19.29546372579	0
0	1772	19.297209325412	1
0	1773	19.305224245511	0
0	1777	19.377379477769	1
0	1778	19.385387560147	0
0	1782	19.401759637031	1
0	1783	19.409765642335	0
0	1792	19.507779440815	1
0	1793	19.515776426252	0
0	1798	19.561327360459	1
0	1800	19.564032818003	2
0	1801	19.56931979791	1
0	1804	19.577311556983	0
0	1808	19.681396752605	1
0	1809	19.689379010981	0
0	1814	19.722257605819	1
0	1815	19.730236406062	0
0	1820	19.874424529069	1
0	1821	19.882390477443	0
0	1825	19.925969800454	1
0	1826	19.933931404747	0
0	1830	19.997368835725	1
0	1832	20.001066820596	2
0	1833	20.005324430543	1
0	1836	20.01327935632	0
0	1841	20.14936797374	1
0	1843	20.150831785334	2
0	1844	20.157310805342	1
0	1847	20.165252971119	0
0	1855	20.329388835619	1
0	1856	20.337316603922	0
0	1861	20.381469013175	1
0	1862	20.389392434304	0
0	1869	20.494761186347	1
0	1870	20.503800589812	0
0	1875	20.572752821582	1
0	1877	20.581879844253	0
0	1883	20.762157215038	1
0	1885	20.762721621091	2
0	1886	20.771021541288	1
0	1889	20.779873942993	0
0	1893	20.836757546486	1
0	1894	20.845522509478	0
0	1899	21.070717663321	1
0	1900	21.079184962482	0
0	1904	21.085072822599	1
0	1906	21.087797667645	2
0	1908	21.092559619824	3
0	1909	21.093522514854	2
0	1912	21.101961877576	1
0	1915	21.110390948571	0
0	1919	21.141080535158	1
0	1920	21.149462227293	0
0	1925	21.171275253998	1
0	1927	21.177350878179	2
0	1928	21.179620738221	1
0	1931	21.187956270094	0
0	1937	21.266830781516	1
0	1938	21.274795300967	0
0	1944	21.291846266627	1
0	1945	21.299701225261	0
0	1949	21.34697872866	1
0	1950	21.354602551636	0
0	1954	21.376073870263	1
0	1955	21.383581115207	0
0	1960	21.45022996218	1
0	1961	21.457715222905	0
0	1965	21.478641372442	1
0	1966	21.486166697215	0
0	1970	21.486743122371	1
0	1972	21.494279950446	0
0	1976	21.516632516852	1
0	1977	21.524212089432	0
0	1984	21.76902208494	1
0	1985	21.77667518551	0
0	1991	21.923189732893	1
0	1992	21.930917678622	0
0	1997	21.943599940581	1
0	1999	21.951368829424	0
0	2005	22.10888190424	1
0	2006	22.116999048694	0
0	2010	22.124262413822	1
0	2011	22.132413560174	0
0	2015	22.135789574327	1
0	2016	22.143966391265	0
0	2020	22.145957232432	1
0	2021	22.154156826975	0
0	2025	22.222008893601	1
0	2026	22.230382969264	0
0	2031	22.288975743103	1
0	2032	22.297509722578	0
0	2037	22.355095792013	1
0	2038	22.363793759852	0
0	2048	22.644869475213	1
0	2049	22.653843153947	0
0	2053	22.769760266032	1
0	2055	22.773165893242	2
0	2056	22.778785666687	1
0	2059	22.787793142647	0
0	2065	22.823601894597	1
0	2066	22.832521408514	0
0	2070	22.864123643254	1
0	2071	22.872965090007	0
0	2076	22.933717616558	1
0	2077	22.942428128729	0
0	2081	22.955902513747	1
0	2083	22.964572098428	0
0	2087	22.972687510614	1
0	2088	22.981326384406	0
0	2093	23.058390765572	1
0	2094	23.06687616271	0
0	2100	23.155611012197	1
0	2101	23.164654333689	0
0	2105	23.164771456038	1
0	2107	23.17380702627	0
0	2111	23.212772960607	1
0	2112	23.221768129845	0
0	2119	23.299773184149	1
0	2120	23.308696042119	0
0	2125	23.321317709257	1
0	2126	23.330222839483	0
0	2130	23.346976887107	1
0	2131	23.355860995569	0
0	2135	23.374203191828	1
0	2137	23.376010883541	2
0	2138	23.383065102883	1
0	2141	23.391919812796	0
0	2146	23.476057418215	1
0	2147	23.484740089083	0
0	2153	23.594304751069	1
0	2154	23.602565111832	0
0	2161	23.73105578005	1
0	2162	23.738807296561	0
0	2167	23.81936382064	1
0	2168	23.827315869463	0
0	2179	23.964592993048	1
0	2180	23.97275568585	0
0	2184	23.975264128863	1
0	2185	23.983430019697	0
0	2189	23.990381914231	1
0	2190	23.998552340006	0
0	2196	24.162994799882	1
0	2197	24.171217364376	0
0	2201	24.172399060162	1
0	2202	24.180624484388	0
0	2208	24.349413252724	1
0	2209	24.357692878571	0
0	2214	24.433328173172	1
0	2216	24.436756310974	2
0	2217	24.441988360098	1
0	2220	24.45070663319	0
0	2224	24.459979167165	1
0	2225	24.468820635295	0
0	2229	24.480415371603	1
0	2231	24.489300938952	0
0	2240	24.628296757779	1
0	2241	24.63697675765	0
0	2245	24.689552265536	1
0	2246	24.698078000771	0
0	2250	24.719156756274	1
0	2251	24.727609884828	0
0	2259	24.865981136357	1
0	2260	24.873544599145	0
0	2264	24.877351019943	1
0	2266	24.879179986603	2
0	2267	24.884914030915	1
0	2271	24.885164625007	2
0	2272	24.892476741378	1
0	2275	24.900039151368	0
0	2280	24.941611527143	1
0	2282	24.949171985547	0
0	2286	24.949269496186	1
0	2288	24.952745008916	2
0	2289	24.956829650513	1
0	2292	24.964389504672	0
0	2297	25.0102014994	1
0	2298	25.017759235161	0
0	2303	25.093789360588	1
0	2304	25.101343781022	0
0	2308	25.131234851816	1
0	2309	25.138787788001	0
0	2313	25.150840771968	1
0	2314	25.158392931254	0
0	2319	25.221115443823	1
0	2320	25.228664819737	0
0	2324	25.256688320305	1
0	2326	25.262945238012	2
0	2327	25.264236288064	1
0	2330	25.271783957104	0
0	2339	25.406051275962	1
0	2341	25.411692179075	2
0	2343	25.412453766662	3
0	2344	25.413593336908	2
0	2347	25.421135099835	1
0	2350	25.428676564779	0
0	2356	25.48733867051	1
0	2357	25.49487752069	0
0	2362	25.527960471676	1
0	2363	25.535502154325	0
0	2369	25.554864188138	1
0	2371	25.559409645886	2
0	2372	25.562410606563	1
0	2375	25.569958354428	0
0	2379	25.578980288679	1
0	2380	25.586530957242	0
0	2384	25.602005172037	1
0	2385	25.609559902897	0
0	2391	25.724704033401	1
0	2393	25.726717046309	2
0	2395	25.728759178217	3
0	2396	25.732280486029	2
0	2400	25.734433864081	3
0	2402	25.735499494524	4
0	2404	25.739858284036	3
0	2407	25.747437428139	2
0	2410	25.755017919055	1
0	2413	25.762599757502	0
0	2418	25.800182915603	1
0	2419	25.807772792661	0
0	2423	25.822356823754	1
0	2424	25.829950653637	0
0	2434	26.130787261327	1
0	2435	26.138546809955	0
0	2439	26.158059380381	1
0	2440	26.165818690408	0
0	2444	26.249174569425	1
0	2445	26.256933082398	0
0	2457	26.584433615962	1
0	2460	26.589806698456	2
0	2461	26.592189197579	1
0	2464	26.599944711411	0
0	2470	26.687692223287	1
0	2471	26.695450238906	0
0	2475	26.72974259274	1
0	2476	26.737578034904	0
0	2480	26.789241106251	1
0	2481	26.797188780123	0
0	2487	26.922110518256	1
0	2488	26.930057068917	0
0	2492	26.931782147905	1
0	2493	26.939740801147	0
0	2497	26.952747612315	1
0	2498	26.960732627651	0
0	2503	27.029349845719	1
0	2504	27.0374326841	0
0	2508	27.124972061187	1
0	2509	27.133180427248	0
0	2513	27.144623935296	1
0	2514	27.152858583807	0
0	2518	27.172797093375	1
0	2519	27.181069715671	0
0	2523	27.199515372973	1
0	2524	27.207738177007	0
0	2528	27.221782067138	1
0	2530	27.22276071894	2
0	2531	27.229961365662	1
0	2534	27.238124798551	0
0	2538	27.249806698881	1
0	2539	27.257931891809	0
0	2544	27.361005970576	1
0	2545	27.368923351939	0
0	2549	27.414840752707	1
0	2550	27.422661298676	0
0	2554	27.436319672985	1
0	2555	27.444102241574	0
0	2559	27.457751107394	1
0	2560	27.465496148413	0
0	2565	27.505755112732	1
0	2566	27.513417395388	0
0	2573	27.680872214301	1
0	2575	27.686401706083	2
0	2576	27.68842320264	1
0	2579	27.695974187234	0
0	2584	27.713835120974	1
0	2585	27.721386092963	0
0	2589	27.805075710317	1
0	2590	27.812626637047	0
0	2596	27.838715489592	1
0	2598	27.840434875111	2
0	2600	27.846266399636	1
0	2603	27.853817305934	0
0	2607	27.860485299322	1
0	2609	27.863810997544	2
0	2610	27.868036198567	1
0	2613	27.875587094067	0
0	2619	27.914000134241	1
0	2620	27.921551006941	0
0	2624	27.987904654374	1
0	2625	27.995455490416	0
0	2629	28.005529083314	1
0	2631	28.007365691928	2
0	2632	28.013079910614	1
0	2635	28.020630734169	0
0	2639	28.075284923337	1
0	2640	28.082835716037	0
0	2644	28.113503493142	1
0	2645	28.121054266885	0
0	2651	28.174177301279	1
0	2653	28.181728044927	0
0	2658	28.246280753619	1
0	2659	28.253831461504	0
0	2663	28.36708081975	1
0	2665	28.374631467718	0
0	2669	28.405064882258	1
0	2670	28.412615511386	0
0	2674	28.457987341538	1
0	2675	28.465537944417	0
0	2681	28.551630153067	1
0	2682	28.5591807095	0
0	2688	28.670723360882	1
0	2689	28.678273858248	0
0	2693	28.716891876987	1
0	2694	28.724442351454	0
0	2701	28.871431610654	1
0	2702	28.878982008474	0
0	2706	28.924999080062	1
0	2707	28.932549451315	0
0	2711	28.936477184394	1
0	2712	28.944027549954	0
0	2716	29.019075993703	1
0	2718	29.026626318298	0
0	2722	29.045515901251	1
0	2724	29.046190405833	2
0	2725	29.053066212733	1
0	2728	29.060616520471	0
0	2732	29.062703481558	1
0	2733	29.070253784516	0
0	2738	29.215953109676	1
0	2739	29.223503336631	0
0	2743	29.236996203622	1
0	2744	29.24454642014	0
0	2751	29.292889036822	1
0	2752	29.300401717962	0
0	2756	29.304467458134	1
0	2757	29.311971191583	0
0	2762	29.398085775329	1
0	2763	29.405609919158	0
0	2769	29.510535805306	1
0	2771	29.511233239544	2
0	2773	29.511306320546	3
0	2774	29.518085886168	2
0	2777	29.525635963286	1
0	2780	29.53318603666	0
0	2785	29.559369870482	1
0	2786	29.566952947947	0
0	2793	29.777840050808	1
0	2794	29.785776094312	0
0	2798	29.791202333069	1
0	2799	29.799149816664	0
0	2803	29.838436200399	1
0	2804	29.846424388886	0
0	2808	29.85674835233	1
0	2809	29.864752434127	0
0	2814	29.876017186351	1
0	2815	29.884038060201	0
0	2819	29.903848487228	1
0	2821	29.911880098415	0
0	2825	29.919600978171	1
0	2826	29.927635155956	0
0	2833	30.329767991029	1
0	2834	30.33786958077	0
0	2839	30.371153890269	1
0	2840	30.379262344769	0
0	2848	30.638987842086	1
0	2849	30.646707508431	0
0	2853	30.692134114401	1
0	2854	30.699925940017	0
0	2860	30.77584586219	1
0	2861	30.783754124068	0
0	2865	30.78640959897	1
0	2867	30.790733163446	2
0	2868	30.794332801892	1
0	2872	30.802246275309	0
0	2876	30.821899657822	1
0	2877	30.829767755505	0
0	2883	31.033642175729	1
0	2884	31.041615123914	0
0	2888	31.046199169909	1
0	2889	31.054166421957	0
0	2896	31.29187525807	1
0	2897	31.299732680675	0
0	2901	31.350655006483	1
0	2903	31.358486599045	0
0	2907	31.3665871709	1
0	2908	31.374411791494	0
0	2912	31.401307503364	1
0	2913	31.409116973145	0
0	2918	31.441628097641	1
0	2919	31.449420046305	0
0	2923	31.465324859321	1
0	2924	31.473106547306	0
0	2928	31.534317942194	1
0	2929	31.542069909514	0
0	2933	31.553850972431	1
0	2934	31.561594566553	0
0	2938	31.571723085556	1
0	2940	31.577416043827	2
0	2941	31.579459034294	1
0	2944	31.587191678405	0
0	2951	31.772588905128	1
0	2953	31.780038069189	2
0	2954	31.780239953842	1
0	2957	31.787887805512	0
0	2965	31.912779109207	1
0	2966	31.92037199945	0
0	2970	31.933408565742	1
0	2971	31.940992972315	0
0	2976	31.976645282648	1
0	2977	31.98421196989	0
0	2981	31.988079942015	1
0	2982	31.995641956924	0
0	2987	32.02916143226	1
0	2988	32.036723778184	0
0	2993	32.056592799509	1
0	2994	32.064165781419	0
0	2998	32.090080891725	1
0	3000	32.097666898626	0
0	3004	32.159077759108	1
0	3006	32.159664434317	2
0	3007	32.166690743678	1
0	3010	32.174306716672	0
0	3014	32.188512752723	1
0	3015	32.196137304809	0
0	3020	32.299384449936	1
0	3021	32.30705289034	0
0	3025	32.330554857238	1
0	3026	32.338235727519	0
0	3030	32.396865011455	1
0	3031	32.404572458855	0
0	3035	32.458232495369	1
0	3037	32.465964703261	0
0	3045	32.638279672811	1
0	3046	32.646085452779	0
0	3055	32.816805179015	1
0	3056	32.824685304809	0
0	3060	32.833214673049	1
0	3061	32.841101703605	0
0	3068	33.044664010293	1
0	3069	33.052523363637	0
0	3073	33.053319607531	1
0	3074	33.061167955352	0
0	3078	33.085694074391	1
0	3079	33.093501530149	0
0	3083	33.151309175699	1
0	3085	33.158269496858	2
0	3086	33.15903504663	1
0	3089	33.166751423392	0
0	3093	33.216805298163	1
0	3094	33.224451415073	0
0	3099	33.373604479783	1
0	3100	33.381322328522	0
0	3106	33.42874263197	1
0	3107	33.436647570837	0
0	3111	33.442113773736	1
0	3112	33.450065457045	0
0	3118	33.592150632329	1
0	3119	33.600064766196	0
0	3123	33.615740105096	1
0	3125	33.619316367942	2
0	3126	33.623681107435	1
0	3129	33.631631195689	0
0	3137	33.823187150937	1
0	3138	33.83137253439	0
0	3143	33.89739401955	1
0	3144	33.905636156829	0
0	3148	33.933703246901	1
0	3149	33.941941485116	0
0	3155	34.144813201959	1
0	3156	34.152885631231	0
0	3161	34.169952582206	1
0	3163	34.173847122612	2
0	3164	34.177947372328	1
0	3167	34.185917783794	0
0	3173	34.322482410603	1
0	3174	34.330679129844	0
0	3178	34.374758443762	1
0	3179	34.382949612176	0
0	3183	34.387411230293	1
0	3184	34.395601056325	0
0	3189	34.397407520868	1
0	3190	34.405596286667	0
0	3196	34.432321715542	1
0	3197	34.440506780403	0
0	3207	34.735936164494	1
0	3209	34.738598349604	2
0	3210	34.744089186413	1
0	3213	34.752241351335	0
0	3218	34.853124361913	1
0	3219	34.861265082997	0
0	3224	34.912000093724	1
0	3225	34.920134648827	0
0	3229	34.938341764485	1
0	3230	34.946473563881	0
0	3236	35.049346631832	1
0	3237	35.057566215502	0
0	3248	35.35735369508	1
0	3249	35.365531022976	0
0	3253	35.457523448441	1
0	3254	35.465731430773	0
0	3258	35.480197124201	1
0	3259	35.488412077167	0
0	3263	35.51348491573	1
0	3264	35.521710123937	0
0	3268	35.545104874006	1
0	3269	35.553339847371	0
0	3275	35.617738218299	1
0	3277	35.620608743658	2
0	3278	35.625995710987	1
0	3282	35.628693280467	2
0	3283	35.634255771636	1
0	3286	35.642518402644	0
0	3290	35.655249085991	1
0	3291	35.663518256886	0
0	3295	35.716363045998	1
0	3296	35.72465131433	0
0	3300	35.726909855298	1
0	3301	35.735201428319	0
0	3306	35.883801312556	1
0	3308	35.892050313633	0
0	3312	35.893916913441	1
0	3314	35.902161979943	0
0	3318	35.933394785726	1
0	3319	35.941624532714	0
0	3323	35.960768864219	1
0	3324	35.968988021988	0
0	3328	36.058804174552	1
0	3329	36.066985631474	0
0	3333	36.073682445735	1
0	3336	36.076671524384	2
0	3337	36.081858211217	1
0	3340	36.090030852564	0
0	3344	36.096744933649	1
0	3346	36.099817855435	2
0	3347	36.104911892586	1
0	3350	36.11307573747	0
0	3354	36.131272780469	1
0	3356	36.137084798004	2
0	3357	36.139426590154	1
0	3360	36.147577300799	0
0	3365	36.232154626669	1
0	3367	36.236320100904	2
0	3369	36.236961327519	3
0	3370	36.240270258936	2
0	3373	36.248382835479	1
0	3376	36.256492359747	0
0	3380	36.27852600438	1
0	3381	36.28662420768	0
0	3385	36.287925526577	1
0	3387	36.292240870173	2
0	3388	36.29602020613	1
0	3391	36.304111853559	0
0	3397	36.514330318225	1
0	3398	36.522341038738	0
0	3402	36.543612551899	1
0	3404	36.546037689107	2
0	3406	36.548785170193	3
0	3408	36.548797856527	4
0	3409	36.551612540533	3
0	3412	36.559609602187	2
0	3416	36.56115408975	3
0	3419	36.567603740071	2
0	3422	36.575610574995	1
0	3425	36.583638823065	0
0	3430	36.678736292126	1
0	3431	36.687050937858	0
0	3435	36.747472445347	1
0	3437	36.754018588433	2
0	3438	36.755989608264	1
0	3441	36.764532554304	0
0	3445	36.811844555548	1
0	3447	36.820490758038	0
0	3452	36.937315813763	1
0	3453	36.946004995363	0
0	3457	37.044715217455	1
0	3459	37.05344152866	0
0	3464	37.106050147926	1
0	3466	37.112606597319	2
0	3467	37.11479780625	1
0	3471	37.12345644772	2
0	3472	37.123548517638	1
0	3475	37.132302285288	0
0	3482	37.259192773454	1
0	3484	37.260141577345	2
0	3485	37.267738108561	1
0	3488	37.276269156106	0
0	3492	37.283438409689	1
0	3493	37.291943330915	0
0	3498	37.292472580583	1
0	3499	37.300956717057	0
0	3505	37.444347974626	1
0	3506	37.452459316562	0
0	3510	37.455197743828	1
0	3511	37.463251382424	0
0	3516	37.523674272793	1
0	3517	37.531450485143	0
0	3521	37.653223979906	1
0	3522	37.661000028337	0
0	3526	37.661363099214	1
0	3527	37.669139137346	0
0	3531	37.674307121944	1
0	3532	37.682083143699	0
0	3536	37.714012372559	1
0	3537	37.721788344076	0
0	3543	37.750525402476	1
0	3545	37.756309854365	2
0	3546	37.758301327795	1
0	3551	37.766072783896	2
0	3552	37.766077243276	1
0	3555	37.773853148919	0
0	3560	37.850203583826	1
0	3561	37.857979383031	0
0	3565	37.862506260133	1
0	3566	37.870282043773	0
0	3570	37.873571279211	1
0	3572	37.881347048851	0
0	3577	37.898834276722	1
0	3579	37.9066100144	0
0	3583	37.913116916552	1
0	3584	37.92089263616	0
0	3588	37.921068774319	1
0	3589	37.928836548988	0
0	3594	37.961067053504	1
0	3595	37.968783575087	0
0	3599	37.990961856321	1
0	3601	37.99388378622	2
0	3602	37.998640510729	1
0	3605	38.006309498647	0
0	3610	38.104248696186	1
0	3612	38.111787163461	0
0	3616	38.156750141008	1
0	3617	38.16429242464	0
0	3621	38.175691724423	1
0	3622	38.183218586148	0
0	3629	38.277548304023	1
0	3630	38.285113596235	0
0	3636	38.309634907428	1
0	3638	38.317206334832	0
0	3643	38.361736816963	1
0	3644	38.369318227856	0
0	3648	38.43608197003	1
0	3649	38.443677672217	0
0	3660	38.714370224982	1
0	3661	38.722019903945	0
0	3665	38.776314749116	1
0	3666	38.783976547385	0
0	3671	38.843544656745	1
0	3672	38.851219651924	0
0	3676	38.865851582978	1
0	3677	38.873530966951	0
0	3681	38.87965970046	1
0	3683	38.885369584398	2
0	3684	38.887341803638	1
0	3687	38.895025420471	0
0	3691	38.90329068008	1
0	3693	38.905239141149	2
0	3695	38.907238140008	3
0	3696	38.910977441329	2
0	3699	38.918665718989	1
0	3702	38.926355513957	0
0	3706	38.95913566724	1
0	3709	38.964644354789	2
0	3710	38.966833458976	1
0	3714	38.973958750552	2
0	3715	38.974532773661	1
0	3718	38.982233612199	0
0	3727	39.127786153646	1
0	3728	39.135499247386	0
0	3732	39.146143840046	1
0	3733	39.153855101547	0
0	3738	39.20711678786	1
0	3739	39.21482197003	0
0	3748	39.441679797426	1
0	3749	39.449453583624	0
0	3753	39.462501700074	1
0	3754	39.470275459942	0
0	3760	39.564791208712	1
0	3762	39.569723527469	2
0	3763	39.572564839234	1
0	3766	39.580338459926	0
0	3780	39.831787232482	1
0	3782	39.837286710459	2
0	3783	39.839560525405	1
0	3787	39.847333808499	0
0	3796	40.125607243546	1
0	3798	40.133380164986	0
0	3804	40.225991195128	1
0	3806	40.233763989659	0
0	3810	40.273984593557	1
0	3811	40.281757327415	0
0	3815	40.307515002627	1
0	3816	40.315287694096	0
0	3820	40.320530575389	1
0	3821	40.328303250404	0
0	3825	40.342154790711	1
0	3826	40.349927438389	0
0	3831	40.374379003101	1
0	3832	40.382151610042	0
0	3839	40.648167128497	1
0	3840	40.655939389343	0
0	3844	40.672153620305	1
0	3846	40.679925850831	0
0	3850	40.69936794247	1
0	3851	40.707140138596	0
0	3856	40.838738837611	1
0	3857	40.846510857573	0
0	3861	40.878608407442	1
0	3862	40.886380377011	0
0	3867	40.909074781464	1
0	3869	40.91599550188	2
0	3871	40.916412746227	3
0	3872	40.916846712525	2
0	3876	40.918375860736	3
0	3877	40.924618633763	2
0	3880	40.932390545177	1
0	3883	40.940162446768	0
0	3888	40.964375181005	1
0	3889	40.97214704217	0
0	3894	41.021570964862	1
0	3896	41.028835974051	2
0	3897	41.029342753737	1
0	3900	41.03711453279	0
0	3904	41.05295486069	1
0	3905	41.0607266099	0
0	3909	41.122857752661	1
0	3910	41.130629413523	0
0	3914	41.141042011441	1
0	3916	41.141425735742	2
0	3917	41.148813649321	1
0	3921	41.153964838619	2
0	3922	41.156585277379	1
0	3925	41.164356895615	0
0	3929	41.209771673641	1
0	3930	41.217543224658	0
0	3935	41.249910611637	1
0	3936	41.257666875276	0
0	3940	41.285387403733	1
0	3941	41.293125874176	0
0	3946	41.56376108384	1
0	3948	41.571362720805	0
0	3953	41.574628760572	1
0	3954	41.582225153651	0
0	3959	41.637600938516	1
0	3960	41.645235172812	0
0	3965	41.703554675814	1
0	3966	41.711295364002	0
0	3974	41.83749571859	1
0	3976	41.842031145053	2
0	3977	41.845307841802	1
0	3980	41.853126085165	0
0	3984	42.051507830824	1
0	3985	42.059491154923	0
0	3989	42.080003964575	1
0	3990	42.088010652146	0
0	3994	42.092526595816	1
0	3995	42.100543593776	0
0	3999	42.111217404541	1
0	4001	42.11211538551	2
0	4003	42.11924984089	1
0	4006	42.12728893022	0
0	4010	42.130345696391	1
0	4011	42.13839399417	0
0	4015	42.165164597676	1
0	4016	42.173241929117	0
0	4022	42.327073099958	1
0	4023	42.335288237101	0
0	4028	42.468940199584	1
0	4029	42.477280008291	0
0	4036	42.556374142677	1
0	4037	42.564792690064	0
0	4044	42.671174272904	1
0	4045	42.679698489591	0
0	4051	42.758858557638	1
0	4053	42.767375649107	0
0	4057	42.914761919118	1
0	4059	42.921673607217	2
0	4060	42.923066354492	1
0	4064	42.923629975139	2
0	4066	42.925259110826	3
0	4067	42.931359759903	2
0	4070	42.939642179204	1
0	4073	42.947913655958	0
0	4080	43.06909959624	1
0	4081	43.077092655322	0
0	4086	43.099798954282	1
0	4089	43.10633293972	2
0	4090	43.107759906988	1
0	4093	43.115722582709	0
0	4098	43.222372746637	1
0	4099	43.230507107019	0
0	4103	43.233147380669	1
0	4104	43.241298262431	0
0	4110	43.288842818265	1
0	4111	43.297080182533	0
0	4119	43.463698575249	1
0	4120	43.472219787204	0
0	4124	43.550327250673	1
0	4125	43.558996461494	0
0	4130	43.652453919906	1
0	4131	43.661304347661	0
0	4136	43.680776434734	1
0	4138	43.689737900045	0
0	4143	43.798498778379	1
0	4144	43.807455171412	0
0	4148	43.825246576788	1
0	4149	43.834184462807	0
0	4153	43.969730594332	1
0	4154	43.978569818535	0
0	4158	44.038066671193	1
0	4159	44.046859986465	0
0	4163	44.075020835764	1
0	4165	44.077612813767	2
0	4166	44.083789522934	1
0	4169	44.092552386451	0
0	4173	44.115924050556	1
0	4174	44.124657064797	0
0	4179	44.183101448169	1
0	4181	44.184498903111	2
0	4182	44.191671127066	1
0	4185	44.200220407992	0
0	4193	44.434993624614	1
0	4195	44.443001692936	0
0	4200	44.514163778618	1
0	4202	44.51872990772	2
0	4203	44.522010228561	1
0	4206	44.529841015318	0
0	4210	44.552428722007	1
0	4211	44.560199373557	0