version 3
run monitoring-exponential-0-20221220-15:40:39-6985
attr configname monitoring-exponential
attr datetime 20221220-15:40:39
attr datetimef 20221220-154039
attr experiment monitoring-exponential
attr inifile omnetpp.ini
attr iterationvars ""
attr iterationvarsd ""
attr iterationvarsf ""
attr measurement ""
attr network AerocomSys
attr processid 6985
attr repetition 0
attr replication #0
attr resultdir results
attr runnumber 0
attr seedset 0
config description "aircraft in monitoring mode, new capacity selected with exponential distrbution"
config **.kMean 0.05
config **.X 0.01
config **.m 300
config **.exponentialMean 1
config **.generationMode 1
config **.operationMode 0
config network AerocomSys
config repeat 1
config seed-set 0
config num-rngs 3
config **.size 100
config **.minCapacity 6000
config **.maxCapacity 15000
config sim-time-limit 300s
config warmup-period 10s
config rng-class omnetpp::cMersenneTwister
config **.nDL 5
config **.nAC 1
config **.PacketGenerator.rng-0 0
config **.LinkSelector.rng-1 1
config **.DataLink[*].rng-0 0

vector 0 AerocomSys.airCraft[0].linkSelector queueLengthStatistic:vector ETV
attr recordingmode vector
attr source queueLength
attr title "queue length statistic"
vector 1 AerocomSys.airCraft[0].linkSelector serviceTimeStatistic:vector ETV
attr recordingmode vector
attr source serviceTime
attr title "service time statistic"
vector 2 AerocomSys.airCraft[0].linkSelector waitingTimeStatistic:vector ETV
attr recordingmode vector
attr source waitingTime
attr title "waiting time statistic"
vector 3 AerocomSys.controlTower responseTimeStatistic:vector ETV
attr recordingmode vector
attr source responseTime
attr title "response time statistic"
0	1059	10.005245567619	1
0	1064	10.047399719226	1
0	1069	10.063135802269	1
0	1075	10.123961234941	1
0	1080	10.190399128629	1
0	1085	10.207416465541	1
0	1091	10.371173624427	1
0	1096	10.399568832101	1
0	1101	10.413869880726	1
0	1107	10.484421101191	1
0	1112	10.527340749582	1
0	1117	10.552557939911	1
0	1122	10.59738748345	1
0	1127	10.710574162243	1
0	1132	10.753035202821	1
0	1137	10.803968139322	1
0	1142	10.816589138967	1
0	1148	10.927664483891	1
0	1155	11.080278566735	1
0	1161	11.137258964912	1
0	1166	11.166890166285	1
0	1171	11.196709136001	1
0	1176	11.290382129994	1
0	1181	11.482532459156	1
0	1186	11.542644387518	1
0	1188	11.548820719886	2
0	1196	11.56647172655	1
0	1202	11.639312654478	1
0	1208	11.723358764705	1
0	1213	11.749894889536	1
0	1218	11.775145826924	1
0	1224	11.831409927766	1
0	1229	11.937884897569	1
0	1234	11.952255421373	1
0	1240	11.995782212689	1
0	1246	12.014569154809	1
0	1251	12.121310677308	1
0	1257	12.289529199961	1
0	1262	12.348498346643	1
0	1267	12.392891417165	1
0	1272	12.457486880605	1
0	1277	12.511378624812	1
0	1282	12.546168597857	1
0	1287	12.584261986422	1
0	1292	12.740535404305	1
0	1297	12.753638266389	1
0	1304	12.805278116921	1
0	1309	12.830393656834	1
0	1314	12.857963456341	1
0	1319	12.906186134616	1
0	1324	12.952806278636	1
0	1329	12.985011514052	1
0	1331	12.985980503119	2
0	1339	13.017736888901	1
0	1345	13.035683249694	1
0	1350	13.098635425557	1
0	1355	13.15260143549	1
0	1360	13.169584672119	1
0	1365	13.186714653354	1
0	1370	13.210896437683	1
0	1375	13.259015190472	1
0	1380	13.328164150799	1
0	1387	13.356162204303	1
0	1393	13.461534584551	1
0	1395	13.468813283473	2
0	1400	13.474240638398	2
0	1405	13.49195184501	2
0	1407	13.496797982739	3
0	1418	13.538992406369	1
0	1423	13.560843807058	1
0	1428	13.605530260973	1
0	1433	13.645657860261	1
0	1438	13.688361847043	1
0	1440	13.690072017961	2
0	1448	13.74302248723	1
0	1454	13.916649261194	1
0	1459	13.969441741627	1
0	1464	13.988798246234	1
0	1469	14.01702877129	1
0	1474	14.029532846039	1
0	1479	14.142964545674	1
0	1481	14.150579226937	2
0	1489	14.173487871135	1
0	1491	14.178603901878	2
0	1499	14.207226979449	1
0	1507	14.414117467475	1
0	1513	14.525363200336	1
0	1518	14.540441495997	1
0	1523	14.622486374893	1
0	1528	14.66099021787	1
0	1533	14.721841192637	1
0	1538	14.751544867553	1
0	1540	14.756825499734	2
0	1545	14.762069591514	2
0	1555	14.888033698018	1
0	1561	14.909750980815	1
0	1568	14.972381357061	1
0	1573	15.004054487947	1
0	1581	15.342324013944	1
0	1586	15.434310653198	1
0	1588	15.442404157534	2
0	1597	15.559913022022	1
0	1602	15.661208462877	1
0	1604	15.663122608521	2
0	1606	15.671988887278	3
0	1617	15.707484783639	1
0	1622	15.755283104835	1
0	1624	15.764410034929	2
0	1629	15.77101922041	2
0	1638	15.84651039319	1
0	1643	15.940706837519	1
0	1648	16.040806162295	1
0	1654	16.123142117361	1
0	1659	16.149642261268	1
0	1664	16.191736309355	1
0	1666	16.199275859865	2
0	1674	16.225419361369	1
0	1676	16.227108700647	2
0	1678	16.230692469863	3
0	1691	16.433184811803	1
0	1696	16.492956740117	1
0	1701	16.516320368437	1
0	1707	16.546535322029	1
0	1712	16.573778178436	1
0	1717	16.637794888627	1
0	1719	16.640390516236	2
0	1728	16.741029153046	1
0	1733	16.763774745286	1
0	1739	16.949272774881	1
0	1741	16.950111163181	2
0	1749	17.046940025056	1
0	1754	17.060056490514	1
0	1756	17.06064565211	2
0	1764	17.133035356209	1
0	1769	17.155347997235	1
0	1774	17.29957858484	1
0	1779	17.365043503041	1
0	1784	17.434358070642	1
0	1789	17.443772819403	1
0	1794	17.464503446536	1
0	1799	17.501310001535	1
0	1804	17.534933027377	1
0	1806	17.537726530021	2
0	1814	17.558425476155	1
0	1819	17.56958243656	1
0	1824	17.579473911933	1
0	1826	17.580408685454	2
0	1831	17.589784633014	2
0	1839	17.668705269119	1
0	1844	17.699835136318	1
0	1849	17.712510421575	1
0	1855	17.816311974597	1
0	1860	17.837494829665	1
0	1865	17.981722044085	1
0	1870	18.113332987212	1
0	1875	18.160189923098	1
0	1880	18.221129763265	1
0	1885	18.266527964631	1
0	1887	18.268145804863	2
0	1896	18.344687366176	1
0	1898	18.353685233254	2
0	1906	18.388345221731	1
0	1913	18.436919329636	1
0	1915	18.439503474926	2
0	1923	18.48254965676	1
0	1928	18.542598202087	1
0	1933	18.556181605604	1
0	1940	18.800138250004	1
0	1945	18.9362056628	1
0	1950	18.951754053048	1
0	1955	18.999345538425	1
0	1960	19.056175363188	1
0	1966	19.094529345917	1
0	1972	19.194387944291	1
0	1977	19.238956873137	1
0	1982	19.308440726326	1
0	1988	19.373929994894	1
0	1995	19.540826711587	1
0	2000	19.559521036382	1
0	2005	19.599920039052	1
0	2010	19.625313295186	1
0	2015	19.637250938828	1
0	2020	19.649027167499	1
0	2025	19.661607098155	1
0	2030	19.671908700579	1
0	2035	19.684251664019	1
0	2040	19.828705443614	1
0	2045	19.870854382385	1
0	2051	19.938121754047	1
0	2056	19.968205703373	1
0	2061	20.001917931855	1
0	2066	20.177641865882	1
0	2071	20.190542504079	1
0	2077	20.247599399222	1
0	2082	20.262274781818	1
0	2084	20.266732496318	2
0	2086	20.269721544464	3
0	2091	20.27262516257	3
0	2102	20.301120040835	1
0	2107	20.334575727019	1
0	2112	20.353259216739	1
0	2117	20.459692721466	1
0	2123	20.519285626649	1
0	2129	20.70662035734	1
0	2134	20.730341171857	1
0	2139	20.778413150436	1
0	2144	20.788311537203	1
0	2149	20.827410323247	1
0	2151	20.828659740913	2
0	2160	20.925077747757	1
0	2162	20.928558631311	2
0	2170	20.996655217526	1
0	2175	21.053532142803	1
0	2180	21.086093679399	1
0	2185	21.116322740316	1
0	2191	21.172840517612	1
0	2196	21.211296507667	1
0	2201	21.257999524297	1
0	2206	21.371491525086	1
0	2211	21.434201688591	1
0	2220	21.66618431491	1
0	2225	21.69788081588	1
0	2227	21.710105366982	2
0	2235	21.740547012669	1
0	2242	21.79494223435	1
0	2249	21.913388142892	1
0	2254	21.928668387983	1
0	2256	21.936048189628	2
0	2258	21.937091550559	3
0	2266	21.950109121136	2
0	2275	22.021128293915	1
0	2281	22.127806458289	1
0	2286	22.147090842991	1
0	2294	22.264483031062	1
0	2299	22.288664950436	1
0	2304	22.34055745421	1
0	2309	22.384932550634	1
0	2314	22.404561202043	1
0	2320	22.493468368885	1
0	2326	22.530136752543	1
0	2332	22.579711967188	1
0	2334	22.579714734783	2
0	2342	22.682755796827	1
0	2347	22.701443961518	1
0	2352	22.717422694262	1
0	2357	22.745131235714	1
0	2364	22.825117207806	1
0	2370	22.93340539185	1
0	2372	22.943672780287	2
0	2380	23.000625662821	1
0	2387	23.153284896301	1
0	2392	23.183737126936	1
0	2397	23.241892791107	1
0	2402	23.274917945094	1
0	2408	23.287053869778	1
0	2414	23.364787016668	1
0	2419	23.512011030539	1
0	2424	23.525043037008	1
0	2430	23.590668436656	1
0	2435	23.696805769353	1
0	2440	23.711453342277	1
0	2445	23.730274809853	1
0	2450	23.742270985825	1
0	2455	23.900125762896	1
0	2460	23.936637146158	1
0	2465	23.968546576438	1
0	2467	23.969846463698	2
0	2475	24.032014002595	1
0	2480	24.043640253514	1
0	2482	24.051983985576	2
0	2490	24.079625904109	1
0	2496	24.145174522517	1
0	2501	24.168608346316	1
0	2506	24.220568628145	1
0	2511	24.251710093633	1
0	2516	24.263806075872	1
0	2521	24.280066876771	1
0	2523	24.290384776451	2
0	2531	24.334574059253	1
0	2537	24.416977867911	1
0	2542	24.516679827975	1
0	2547	24.585413825665	1
0	2549	24.591665455161	2
0	2557	24.647838480138	1
0	2562	24.684264672275	1
0	2567	24.700474627949	1
0	2569	24.707556729689	2
0	2574	24.717169801731	2
0	2582	24.780260435405	1
0	2587	24.841210402664	1
0	2592	24.866424399327	1
0	2597	24.897526245281	1
0	2604	24.939195157313	1
0	2609	25.03095832746	1
0	2611	25.041081265645	2
0	2616	25.052543481905	2
0	2618	25.060367270424	3
0	2623	25.069380985403	3
0	2631	25.102858014946	2
0	2636	25.10952504611	2
0	2641	25.131497815635	2
0	2650	25.195519033334	1
0	2659	25.336550830755	1
0	2661	25.338097145333	2
0	2669	25.410574884154	1
0	2674	25.479292034875	1
0	2679	25.548340189658	1
0	2681	25.553198573576	2
0	2689	25.670223171609	1
0	2694	25.682483076241	1
0	2696	25.686838505404	2
0	2704	25.756004328712	1
0	2710	25.796173916845	1
0	2716	25.86195522976	1
0	2722	25.905865983696	1
0	2724	25.908200370878	2
0	2734	26.071625190919	1
0	2739	26.083357983382	1
0	2744	26.100633962567	1
0	2749	26.117541698309	1
0	2754	26.131318095161	1
0	2759	26.18786401912	1
0	2761	26.193148377825	2
0	2763	26.196404021064	3
0	2765	26.197232325785	4
0	2780	26.237789376896	1
0	2785	26.370417302672	1
0	2787	26.370881453891	2
0	2796	26.426301941602	1
0	2803	26.515801421826	1
0	2808	26.59269285755	1
0	2813	26.800491412328	1
0	2818	26.817036906387	1
0	2823	26.877821430055	1
0	2828	26.921965457303	1
0	2830	26.931987567057	2
0	2835	26.935292167592	2
0	2843	26.971204491597	1
0	2849	27.004444879075	1
0	2854	27.047873165648	1
0	2861	27.237574354802	1
0	2866	27.31502493876	1
0	2873	27.419602767391	1
0	2878	27.466233360154	1
0	2883	27.48686985349	1
0	2888	27.499190644601	1
0	2894	27.66213669346	1
0	2899	27.692500657891	1
0	2904	27.705679513533	1
0	2909	27.811223952252	1
0	2915	27.960333986026	1
0	2920	27.994224086129	1
0	2926	28.136056095798	1
0	2932	28.198917945577	1
0	2937	28.27919088373	1
0	2942	28.312483008062	1
0	2947	28.36225619023	1
0	2952	28.423900213382	1
0	2960	28.527588286537	1
0	2965	28.562060013429	1
0	2970	28.579397678618	1
0	2975	28.672469260767	1
0	2981	28.766974345672	1
0	2983	28.777779156502	2
0	2992	28.825879752832	1
0	2997	28.900091876965	1
0	2999	28.900758139206	2
0	3008	29.083741005744	1
0	3013	29.105067796346	1
0	3019	29.204205241576	1
0	3021	29.2122219463	2
0	3029	29.288025392791	1
0	3034	29.488422875535	1
0	3039	29.698515846847	1
0	3044	29.731055713965	1
0	3049	29.801089498813	1
0	3055	29.835486672736	1
0	3057	29.835689488802	2
0	3065	29.8866988432	1
0	3067	29.902398738103	2
0	3075	29.925388303992	1
0	3081	29.951811665407	1
0	3083	29.959172917273	2
0	3091	29.987123300773	1
0	3096	30.07345496976	1
0	3101	30.091134798523	1
0	3103	30.101661462933	2
0	3111	30.127297195064	1
0	3116	30.163099460964	1
0	3118	30.169528472828	2
0	3123	30.182229041746	2
0	3134	30.379610705124	1
0	3136	30.38475912331	2
0	3144	30.410813064364	1
0	3150	30.509907581419	1
0	3155	30.552014396561	1
0	3160	30.73246144681	1
0	3165	30.753511111712	1
0	3170	30.915509260057	1
0	3177	30.993273978075	1
0	3182	31.111793357106	1
0	3187	31.13829143607	1
0	3192	31.212662923787	1
0	3197	31.234920390757	1
0	3202	31.255179534874	1
0	3207	31.280679076566	1
0	3209	31.284908051154	2
0	3217	31.30287274641	1
0	3222	31.329021129093	1
0	3227	31.403652737303	1
0	3232	31.41686626051	1
0	3237	31.547194850626	1
0	3239	31.554301126196	2
0	3248	31.573976246752	1
0	3250	31.57672161538	2
0	3261	31.72946460433	1
0	3266	31.79412199727	1
0	3268	31.794824326832	2
0	3270	31.795398989342	3
0	3281	31.833520173553	1
0	3286	31.907130381453	1
0	3291	31.925292492398	1
0	3293	31.933239151381	2
0	3301	32.040458424607	1
0	3303	32.044601538253	2
0	3311	32.05902717377	1
0	3313	32.063720901134	2
0	3321	32.120289839514	1
0	3326	32.176034210609	1
0	3331	32.259182499643	1
0	3336	32.273258700767	1
0	3342	32.301553427849	1
0	3347	32.328836313587	1
0	3353	32.39857976815	1
0	3358	32.439330684695	1
0	3363	32.527811675855	1
0	3368	32.626314554135	1
0	3373	32.650138483265	1
0	3378	32.715060765045	1
0	3380	32.720137469242	2
0	3388	32.735895470678	1
0	3393	32.75069056434	1
0	3395	32.757738958561	2
0	3403	32.802555418812	1
0	3405	32.805403745435	2
0	3415	32.837762480637	1
0	3420	32.855710546556	1
0	3425	32.889175690155	1
0	3430	32.904374268116	1
0	3435	32.935046222596	1
0	3441	32.965499445362	1
0	3446	33.002678604951	1
0	3452	33.060165674338	1
0	3457	33.08933686289	1
0	3462	33.148811675457	1
0	3468	33.244553788339	1
0	3473	33.261223955258	1
0	3478	33.289632479445	1
0	3483	33.313528378821	1
0	3488	33.401214111072	1
0	3490	33.411206887968	2
0	3498	33.446807291249	1
0	3505	33.524494566351	1
0	3507	33.529011428555	2
0	3509	33.531937823502	3
0	3520	33.585884168927	1
0	3525	33.645584837457	1
0	3527	33.657155886055	2
0	3535	33.732566647636	1
0	3540	33.826522569347	1
0	3545	33.901643209033	1
0	3550	33.958827740062	1
0	3555	33.973843994076	1
0	3557	33.983667088371	2
0	3566	34.007072411033	1
0	3568	34.010693366539	2
0	3576	34.05498139884	1
0	3578	34.055468169307	2
0	3583	34.071397361701	2
0	3591	34.182701561173	1
0	3596	34.20587106255	1
0	3598	34.213033713619	2
0	3603	34.224007121664	2
0	3611	34.299530201725	1
0	3616	34.330326165914	1
0	3621	34.459948596353	1
0	3623	34.462230498828	2
0	3631	34.525025173045	1
0	3637	34.605446065499	1
0	3642	34.639193614182	1
0	3644	34.643197556979	2
0	3652	34.674894163304	1
0	3660	34.711471430261	1
0	3665	34.818626415282	1
0	3670	34.836948979874	1
0	3675	34.870460573703	1
0	3680	34.913543948293	1
0	3686	34.940314165848	1
0	3691	35.100554607329	1
0	3696	35.110119409624	1
0	3701	35.161981664329	1
0	3706	35.194227088887	1
0	3708	35.196027230374	2
0	3718	35.272569651321	1
0	3723	35.300710911412	1
0	3728	35.341355829471	1
0	3733	35.377025043611	1
0	3738	35.38573480163	1
0	3743	35.424147468723	1
0	3745	35.431911747998	2
0	3753	35.489101516954	1
0	3758	35.541515972202	1
0	3763	35.557774515726	1
0	3768	35.596516634701	1
0	3770	35.603414296297	2
0	3778	35.623117174894	1
0	3783	35.648051791538	1
0	3785	35.656002392378	2
0	3795	35.812643866855	1
0	3800	35.821353802684	1
0	3805	35.831713061797	1
0	3807	35.838642402868	2
0	3816	35.955804399373	1
0	3821	35.999051304844	1
0	3826	36.038293155824	1
0	3828	36.043133029439	2
0	3836	36.073657171689	1
0	3841	36.194357993214	1
0	3846	36.301229077735	1
0	3848	36.305559927457	2
0	3856	36.336240137944	1
0	3862	36.4168067379	1
0	3867	36.481204836654	1
0	3872	36.58603665033	1
0	3877	36.611496774673	1
0	3879	36.616402750804	2
0	3887	36.733596232844	1
0	3892	36.761379178502	1
0	3897	36.819942363249	1
0	3902	36.851991040512	1
0	3907	36.912126729703	1
0	3912	36.955525228804	1
0	3917	36.975379276305	1
0	3922	37.038361334836	1
0	3927	37.109050501313	1
0	3929	37.110422606335	2
0	3937	37.16096106449	1
0	3942	37.226687169394	1
0	3947	37.240410345494	1
0	3952	37.313238356073	1
0	3957	37.321988108484	1
0	3959	37.322478830304	2
0	3968	37.402056636444	1
0	3973	37.420485783425	1
0	3980	37.580398532264	1
0	3985	37.593653187334	1
0	3990	37.624290459577	1
0	3995	37.659291741383	1
0	4000	37.703991811517	1
0	4006	37.857645572656	1
0	4012	37.955144418248	1
0	4017	37.995945346446	1
0	4022	38.02649822451	1
0	4024	38.03162581916	2
0	4033	38.18332294778	1
0	4038	38.231923492333	1
0	4043	38.274795247464	1
0	4049	38.374192220206	1
0	4054	38.460145685795	1
0	4059	38.468722617164	1
0	4065	38.588481606633	1
0	4071	38.83265655615	1
0	4076	38.917168303888	1
0	4078	38.921609923021	2
0	4083	38.930292751181	2
0	4088	38.935253827505	2
0	4096	38.984817802793	1
0	4101	39.035020361487	1
0	4106	39.06043133419	1
0	4111	39.209520317056	1
0	4114	39.212758601695	2
0	4122	39.350788824479	1
0	4127	39.378374005109	1
0	4132	39.408028084975	1
0	4137	39.422994504096	1
0	4144	39.488036375469	1
0	4149	39.582572833191	1
0	4154	39.650358758884	1
0	4156	39.652052351646	2
0	4161	39.670387609336	2
0	4171	39.83007570297	1
0	4173	39.83645438166	2
0	4181	39.858408230939	1
0	4186	39.887746671273	1
0	4191	39.909804411809	1
0	4197	39.934664876126	1
0	4199	39.935488040325	2
0	4207	39.973436279037	1
0	4209	39.983678892394	2
0	4217	40.077010915903	1
0	4222	40.102657265494	1
0	4228	40.141080394364	1
0	4233	40.273539807476	1
0	4238	40.330553751322	1
0	4240	40.335800388688	2
0	4249	40.382775487981	1
0	4255	40.528071468164	1
0	4257	40.533255009996	2
0	4266	40.63506971936	1
0	4268	40.639896783311	2
0	4276	40.670168472393	1
0	4278	40.673048118234	2
0	4283	40.692826398254	2
0	4285	40.697351771761	3
0	4290	40.710598518643	3
0	4295	40.72413473818	3
0	4307	40.771790865093	1
0	4312	40.863267972886	1
0	4314	40.864949668932	2
0	4322	40.901895669929	1
0	4324	40.902682126118	2
0	4332	40.938664371002	1
0	4337	40.966664789669	1
0	4342	41.019131897965	1
0	4344	41.022656995383	2
0	4352	41.061984949978	1
0	4357	41.076498620734	1
0	4359	41.078148819987	2
0	4364	41.090646360819	2
0	4373	41.134039454313	1
0	4378	41.148636757899	1
0	4383	41.222357869138	1
0	4385	41.229381654986	2
0	4393	41.252980059375	1
0	4395	41.253585521628	2
0	4403	41.287353315137	1
0	4405	41.293489065503	2
0	4413	41.493367239339	1
0	4419	41.541546874153	1
0	4424	41.555575670462	1
0	4429	41.738553776385	1
0	4436	41.761999842749	1
0	4442	41.994013842546	1
0	4444	41.996350587633	2
0	4452	42.022652127421	1
0	4457	42.041210213461	1
0	4459	42.050104051354	2
0	4467	42.139150785099	1
0	4472	42.190061664039	1
0	4478	42.272320835393	1
0	4484	42.306018007604	1
0	4489	42.357103924974	1
0	4495	42.584495117567	1
0	4500	42.607446513941	1
0	4502	42.610823221785	2
0	4507	42.629576318941	2
0	4515	42.706023262477	1
0	4522	42.786956315798	1
0	4527	42.803968176779	1
0	4529	42.807620759637	2
0	4534	42.821436019283	2
0	4542	42.878969148929	1
0	4547	42.933279314487	1
0	4552	42.957239949211	1
0	4557	42.971362284809	1
0	4563	43.021608950262	1
0	4568	43.076418578312	1
0	4573	43.207200624933	1
0	4579	43.243619503585	1
0	4585	43.339806432118	1
0	4590	43.3673965382	1
0	4595	43.401822232602	1
0	4600	43.442271217359	1
0	4605	43.470187556822	1
0	4610	43.487104862757	1
0	4616	43.573560844641	1
0	4621	43.634867455253	1
0	4626	43.701881253352	1
0	4631	43.728676193119	1
0	4636	43.758309064016	1
0	4641	43.780666059146	1
0	4647	43.954198313173	1
0	4652	44.042402682782	1
0	4657	44.064964622707	1
0	4662	44.194455929982	1
0	4667	44.219792090677	1
0	4669	44.22214705423	2
0	4677	44.289248041289	1
0	4682	44.302487154956	1
0	4687	44.332295749526	1
0	4692	44.353721129735	1
0	4698	44.492178353877	1
0	4705	44.576539268315	1
0	4710	44.59140794471	1
0	4717	44.803058734527	1
0	4722	44.827102645742	1
0	4728	45.000745431037	1
0	4733	45.060469928212	1
0	4738	45.178136666616	1
0	4743	45.29182202495	1
0	4748	45.309410394221	1
0	4750	45.31586231938	2
0	4759	45.557348331778	1
0	4764	45.571171967605	1
0	4769	45.585517422374	1
0	4774	45.598473035168	1
0	4777	45.604070262225	2
0	4785	45.637689407327	1
0	4790	45.788437820936	1
0	4795	45.899498530096	1
0	4800	45.912789357547	1
0	4805	45.934956077347	1
0	4810	45.993477863848	1
0	4816	46.017803820836	1
0	4818	46.020810239293	2
0	4827	46.14509179351	1
0	4832	46.210689947564	1
0	4834	46.216731517377	2
0	4843	46.323466637104	1
0	4851	46.373331583312	1
0	4856	46.389234310572	1
0	4858	46.396359457855	2
0	4866	46.420185248904	1
0	4871	46.443625033486	1
0	4876	46.467068941267	1
0	4881	46.486677005748	1
0	4886	46.55574995974	1
0	4893	46.612739730073	1
0	4898	46.626317519657	1
0	4904	46.705685381142	1
0	4906	46.715113617355	2
0	4914	46.750165892821	1
0	4920	46.779993388665	1
0	4925	46.797559452742	1
0	4930	46.815713394751	1
0	4936	46.924274688819	1
0	4942	47.01565100221	1
0	4947	47.037334244979	1
0	4952	47.0509077433	1
0	4957	47.11795282953	1
0	4962	47.152849706972	1
0	4967	47.193374364331	1
0	4972	47.336245631722	1
0	4974	47.347497756415	2
0	4982	47.397753538844	1
0	4988	47.437514648909	1
0	4993	47.53849387407	1
0	4998	47.575155141004	1
0	5003	47.716000727502	1
0	5008	47.737446319291	1
0	5014	47.806914244638	1
0	5016	47.808160649424	2
0	5025	47.868288516659	1
0	5027	47.8763456456	2
0	5035	48.048392847979	1
0	5037	48.055462503616	2
0	5047	48.314718974768	1
0	5052	48.37625491732	1
0	5057	48.406312649639	1
0	5062	48.468046643442	1
0	5065	48.471721962313	2
0	5073	48.519027049376	1
0	5078	48.536348715751	1
0	5083	48.592071627337	1
0	5085	48.600336277953	2
0	5093	48.630002806366	1
0	5098	48.657022941246	1
0	5104	48.716572013916	1
0	5106	48.723609271687	2
0	5114	48.747376255169	1
0	5119	48.793708185184	1
0	5121	48.79897799168	2
0	5129	48.823106752438	1
0	5135	48.984372556624	1
0	5141	49.097246396162	1
0	5143	49.10100598662	2
0	5152	49.272787156244	1
0	5154	49.273761620892	2
0	5162	49.313342075622	1
0	5169	49.507887580142	1
0	5174	49.523954595285	1
0	5176	49.531991097313	2
0	5184	49.576843748018	1
0	5189	49.591811398165	1
0	5194	49.705346903535	1
0	5196	49.717484175403	2
0	5204	49.743589740624	1
0	5209	49.786954341566	1
0	5215	49.827111180162	1
0	5220	50.013081595707	1
0	5225	50.028930464701	1
0	5230	50.044872517122	1
0	5235	50.075261755328	1
0	5240	50.250714932878	1
0	5245	50.276399213541	1
0	5247	50.277690615762	2
0	5252	50.291969061787	2
0	5260	50.401451397515	1
0	5265	50.436698863584	1
0	5270	50.498353299945	1
0	5275	50.516934087686	1
0	5280	50.533204923544	1
0	5285	50.556548140722	1
0	5290	50.669172784226	1
0	5295	50.706391697296	1
0	5297	50.707735728272	2
0	5305	50.777169591965	1
0	5310	50.826296009101	1
0	5315	50.846582326294	1
0	5320	50.866572089918	1
0	5326	50.995527746457	1
0	5331	51.166273991579	1
0	5336	51.265414620593	1
0	5338	51.274645414238	2
0	5343	51.277141194359	2
0	5351	51.393017497487	1
0	5356	51.407645027547	1
0	5361	51.42766410412	1
0	5366	51.45720586514	1
0	5373	51.567222331162	1
0	5375	51.572748124992	2
0	5383	51.608666416753	1
0	5388	51.630088468193	1
0	5393	51.665820177562	1
0	5398	51.733192618747	1
0	5403	51.757648039278	1
0	5408	51.814700205991	1
0	5413	51.852460796879	1
0	5418	51.901154726453	1
0	5423	52.045910607304	1
0	5429	52.107895511335	1
0	5434	52.21957750389	1
0	5439	52.231043362472	1
0	5444	52.287566222388	1
0	5449	52.308470805335	1
0	5454	52.359418464389	1
0	5459	52.415806486068	1
0	5464	52.455550127871	1
0	5469	52.561245468603	1
0	5474	52.577165119406	1
0	5479	52.616392954252	1
0	5484	52.62441715962	1
0	5489	52.641030190799	1
0	5494	52.738032601293	1
0	5496	52.739567689944	2
0	5504	52.789968366968	1
0	5510	52.851920192337	1
0	5515	52.869728481415	1
0	5517	52.87012424874	2
0	5525	52.900953903166	1
0	5530	52.924268754488	1
0	5532	52.925510414875	2
0	5540	52.963318727265	1
0	5545	53.004148361707	1
0	5550	53.131772186384	1
0	5555	53.154176584803	1
0	5557	53.158864354183	2
0	5565	53.193793404487	1
0	5570	53.219832347731	1
0	5572	53.228172135637	2
0	5577	53.229402817841	2
0	5585	53.257116241512	1
0	5590	53.278090207685	1
0	5595	53.396404720877	1
0	5600	53.445078348059	1
0	5602	53.445505748991	2
0	5607	53.461866268057	2
0	5616	53.635335959996	1
0	5621	53.647106253321	1
0	5626	53.705809760161	1
0	5628	53.711957888505	2
0	5633	53.717193502176	2
0	5641	53.760229237552	1
0	5646	53.777337972133	1
0	5651	53.836754430147	1
0	5656	53.875480269544	1
0	5662	53.931210819694	1
0	5668	53.99560533165	1
0	5673	54.144265748624	1
0	5678	54.168887817443	1
0	5680	54.169023161172	2
0	5685	54.181902404489	2
0	5693	54.23399462773	1
0	5698	54.264330248192	1
0	5703	54.310193838038	1
0	5708	54.48911892433	1
0	5713	54.533545359946	1
0	5718	54.623279015646	1
0	5725	54.787811457159	1
0	5732	54.910943670629	1
0	5734	54.911794451815	2
0	5743	54.966817878339	1
0	5748	55.02643366705	1
0	5753	55.055484099823	1
0	5760	55.139498219827	1
0	5765	55.197271956264	1
0	5770	55.23291978022	1
0	5775	55.285211044859	1
0	5780	55.305531688196	1
0	5782	55.307008278754	2
0	5790	55.385241106289	1
0	5795	55.511235540981	1
0	5797	55.516350630031	2
0	5805	55.555444851186	1
0	5810	55.584617859801	1
0	5818	55.820937619644	1
0	5823	55.857631117995	1
0	5828	55.881783769208	1
0	5833	55.940985156025	1
0	5840	56.023152817785	1
0	5842	56.027917041929	2
0	5850	56.058819660786	1
0	5855	56.071742623222	1
0	5860	56.159415029136	1
0	5865	56.185822228672	1
0	5871	56.22455291549	1
0	5877	56.273367516638	1
0	5883	56.382503211102	1
0	5889	56.49150423346	1
0	5894	56.597561956302	1
0	5900	56.64578694439	1
0	5906	56.665684364122	1
0	5908	56.672846799311	2
0	5916	56.698758191716	1
0	5922	56.895831125947	1
0	5927	56.93516528172	1
0	5933	57.037867905913	1
0	5938	57.086470354337	1
0	5944	57.121400532684	1
0	5949	57.145250420231	1
0	5955	57.273026306064	1
0	5960	57.312084745563	1
0	5965	57.351061497005	1
0	5967	57.357505429307	2
0	5976	57.485902060742	1
0	5981	57.542982836918	1
0	5986	57.631550502884	1
0	5991	57.648472559525	1
0	5996	57.821023065993	1
0	5998	57.823219427699	2
0	6006	57.949370300767	1
0	6008	57.955540774342	2
0	6010	57.957375727856	3
0	6015	57.963002225175	3
0	6017	57.972607003982	4
0	6025	57.99163255141	3
0	6033	58.016276489828	2
0	6039	58.03043011162	2
0	6047	58.182406691127	1
0	6052	58.223772987307	1
0	6057	58.241608799941	1
0	6063	58.360020602591	1
0	6066	58.368766115596	2
0	6074	58.412153872743	1
0	6079	58.5208655181	1
0	6084	58.566422808504	1
0	6089	58.595987947782	1
0	6094	58.609581239711	1
0	6099	58.728812006873	1
0	6104	58.772292774915	1
0	6106	58.781024164739	2
0	6111	58.78890776738	2
0	6119	58.843012861604	1
0	6124	58.863458738066	1
0	6129	58.892473217465	1
0	6134	58.941585126685	1
0	6136	58.94556363444	2
0	6144	58.967980099771	1
0	6149	59.027592711875	1
0	6154	59.148545281583	1
0	6159	59.162756268759	1
0	6164	59.268145286679	1
0	6166	59.270166365562	2
0	6175	59.298638171256	1
0	6177	59.301728978688	2
0	6185	59.338179314757	1
0	6187	59.34133048697	2
0	6195	59.373516727263	1
0	6201	59.492670140923	1
0	6204	59.502859410033	2
0	6212	59.57019077446	1
0	6217	59.598716073864	1
0	6222	59.712885775585	1
0	6227	59.723270939896	1
0	6233	59.779096868574	1
0	6238	59.841896648513	1
0	6243	59.879535131115	1
0	6249	59.916547740686	1
0	6254	59.934700098406	1
0	6260	59.954024807508	1
0	6267	60.263820313444	1
0	6269	60.263975531284	2
0	6277	60.286461199681	1
0	6283	60.331939734925	1
0	6288	60.363744907643	1
0	6293	60.416104520418	1
0	6298	60.439864992357	1
0	6300	60.440125148997	2
0	6308	60.634557385135	1
0	6314	60.810256326283	1
0	6319	60.819854221381	1
0	6324	60.874366500704	1
0	6329	60.8942404547	1
0	6334	60.911586898858	1
0	6339	60.968613122606	1
0	6344	60.979793075523	1
0	6346	60.983057755305	2
0	6355	61.113041417572	1
0	6360	61.159770438389	1
0	6365	61.178269397377	1
0	6370	61.210739933717	1
0	6375	61.236550106464	1
0	6380	61.253253860617	1
0	6385	61.303381981033	1
0	6390	61.316999542351	1
0	6395	61.427660903928	1
0	6400	61.463791015805	1
0	6405	61.492126113797	1
0	6410	61.515063678929	1
0	6418	61.646770248726	1
0	6424	61.677258357369	1
0	6429	61.722092649198	1
0	6434	61.742677678092	1
0	6439	61.770940442158	1
0	6448	61.947098009219	1
0	6453	61.992018127541	1
0	6455	61.999179291115	2
0	6464	62.021066263921	1
0	6466	62.02615704602	2
0	6475	62.079661170501	1
0	6480	62.100694554121	1
0	6486	62.15351660383	1
0	6491	62.198221898236	1
0	6497	62.284441492509	1
0	6502	62.33826101548	1
0	6507	62.36403339298	1
0	6512	62.389346591334	1
0	6514	62.391261031223	2
0	6524	62.752934453863	1
0	6530	62.961706634074	1
0	6535	62.983391607594	1
0	6540	63.013114908429	1
0	6545	63.077015014887	1
0	6553	63.215752745966	1
0	6559	63.266500693884	1
0	6564	63.322244036588	1
0	6571	63.406090773238	1
0	6576	63.421600579401	1
0	6583	63.608558003303	1
0	6588	63.650071035641	1
0	6593	63.760341075831	1
0	6599	63.917590953466	1
0	6604	63.989906332074	1
0	6606	63.995929245462	2
0	6614	64.055836814854	1
0	6619	64.071725281923	1
0	6624	64.092161164635	1
0	6626	64.096442204341	2
0	6631	64.104432193363	2
0	6639	64.176898286837	1
0	6641	64.180132467094	2
0	6643	64.181228836128	3
0	6651	64.195075947394	2
0	6656	64.202457541556	2
0	6664	64.230764019141	1
0	6669	64.245861769315	1
0	6674	64.282768606442	1
0	6680	64.385197764272	1
0	6686	64.459356434674	1
0	6691	64.469243023071	1
0	6697	64.628637231685	1
0	6702	64.657031616341	1
0	6704	64.663271270954	2
0	6712	64.682932135304	1
0	6714	64.688590801924	2
0	6722	64.732372741829	1
0	6727	64.776915431924	1
0	6733	64.914726085798	1
0	6739	64.983128786867	1
0	6744	65.124454985395	1
0	6750	65.218698216105	1
0	6752	65.221395063926	2
0	6761	65.358707657437	1
0	6766	65.404050812802	1
0	6771	65.609047527435	1
0	6778	65.720236668223	1
0	6783	65.745761426358	1
0	6788	65.821679883778	1
0	6793	65.845608712331	1
0	6795	65.857492005886	2
0	6800	65.865489216554	2
0	6808	65.937896522751	1
0	6813	65.995645249429	1
0	6815	66.006123473715	2
0	6823	66.059590026633	1
0	6828	66.174102887628	1
0	6833	66.273150652434	1
0	6835	66.273599221801	2
0	6837	66.27871514578	3
0	6839	66.283443482605	4
0	6850	66.317879024803	2
0	6859	66.366150814788	1
0	6864	66.409654810306	1
0	6869	66.433753770784	1
0	6874	66.447578154989	1
0	6876	66.452655593518	2
0	6881	66.461913396192	2
0	6889	66.671676827198	1
0	6894	66.769832991676	1
0	6900	66.883281446007	1
0	6902	66.886297347196	2
0	6910	66.902109202488	1
0	6915	66.933911726044	1
0	6921	66.965957497204	1
0	6923	66.97211301995	2
0	6932	67.004785682936	1
0	6937	67.035323391679	1
0	6942	67.070826908962	1
0	6948	67.266333947445	1
0	6953	67.437290772579	1
0	6958	67.464847669995	1
0	6960	67.470113390955	2
0	6969	67.567402620151	1
0	6971	67.569425517934	2
0	6973	67.575664894052	3
0	6984	67.608718884093	1
0	6989	67.624540253652	1
0	6994	67.655188617086	1
0	7000	67.68104696344	1
0	7005	67.694458118104	1
0	7010	67.719983746901	1
0	7012	67.72301746191	2
0	7020	67.778660652491	1
0	7022	67.785271232482	2
0	7030	67.806405721885	1
0	7035	67.903565749701	1