version 3
run monitoring-exponential-7-20230106-17:25:38-1873
attr configname monitoring-exponential
attr datetime 20230106-17:25:38
attr datetimef 20230106-172538
attr experiment monitoring-exponential
attr inifile omnetpp.ini
attr iterationvars ""
attr iterationvarsd ""
attr iterationvarsf ""
attr measurement ""
attr network AerocomSys
attr processid 1873
attr repetition 7
attr replication #7
attr resultdir results
attr runnumber 7
attr seedset 7
config description "aircraft in monitoring mode, new capacity selected with exponential distrbution"
config **.X 0.1
config **.exponentialMean 1
config **.generationMode 1
config **.operationMode 0
config network AerocomSys
config repeat 10
config seed-set 7
config num-rngs 3
config **.size 100
config **.minCapacity 6000
config **.maxCapacity 15000
config sim-time-limit 300s
config warmup-period 10s
config rng-class omnetpp::cMersenneTwister
config **.nDL 15
config **.nAC 1
config **.kMean 0.05+7*0.001
config **.PacketGenerator.rng-0 0
config **.LinkSelector.rng-1 1
config **.DataLink[*].rng-2 2

vector 0 AerocomSys.airCraft[0].linkSelector queueLengthStatistic:vector ETV
attr recordingmode vector
attr source queueLength
attr title "queue length statistic"
vector 1 AerocomSys.airCraft[0].linkSelector serviceTimeStatistic:vector ETV
attr recordingmode vector
attr source serviceTime
attr title "service time statistic"
vector 2 AerocomSys.airCraft[0].linkSelector waitingTimeStatistic:vector ETV
attr recordingmode vector
attr source waitingTime
attr title "waiting time statistic"
vector 3 AerocomSys.controlTower responseTimeStatistic:vector ETV
attr recordingmode vector
attr source responseTime
attr title "response time statistic"
0	1056	10.031441373597	1
0	1057	10.038926543473	0
0	1061	10.04475523985	1
0	1062	10.052334954036	0
0	1066	10.060480088679	1
0	1068	10.06817459088	0
0	1072	10.156980216353	1
0	1073	10.164838175486	0
0	1079	10.314467309046	1
0	1081	10.3223500367	0
0	1085	10.33511353732	1
0	1086	10.342999523657	0
0	1090	10.394126079676	1
0	1091	10.402021395089	0
0	1096	10.458258955809	1
0	1097	10.466164434814	0
0	1101	10.472188858473	1
0	1103	10.480096548508	0
0	1109	10.618823221808	1
0	1110	10.626754261707	0
0	1117	10.684533184302	1
0	1119	10.688667839315	2
0	1120	10.692527526204	1
0	1123	10.700544932071	0
0	1127	10.733067763714	1
0	1128	10.741157934376	0
0	1133	10.819833343807	1
0	1134	10.827516438964	0
0	1139	10.849516904728	1
0	1141	10.85155373758	2
0	1142	10.857091858419	1
0	1145	10.864677586325	0
0	1149	10.883815744699	1
0	1150	10.891439729284	0
0	1154	10.924369729123	1
0	1155	10.932052511697	0
0	1159	10.991214559498	1
0	1161	10.998996263288	0
0	1166	11.024141355982	1
0	1167	11.031972729353	0
0	1172	11.060584734095	1
0	1174	11.068471826279	0
0	1178	11.127438184583	1
0	1179	11.135429578536	0
0	1183	11.230908641108	1
0	1184	11.238769319024	0
0	1189	11.317019063974	1
0	1190	11.324876358268	0
0	1194	11.324937872004	1
0	1196	11.327695579669	2
0	1197	11.332807173962	1
0	1200	11.340688444928	0
0	1204	11.370101301222	1
0	1206	11.374518076037	2
0	1208	11.37555618496	3
0	1209	11.378039794349	2
0	1213	11.385990575312	1
0	1216	11.393953701319	0
0	1220	11.428479317588	1
0	1221	11.43650907042	0
0	1227	11.521574235659	1
0	1228	11.529597037402	0
0	1233	11.592596852692	1
0	1235	11.60044557113	0
0	1242	11.723613310369	1
0	1244	11.731159954281	0
0	1248	11.732928853343	1
0	1249	11.740483490766	0
0	1253	11.752920157075	1
0	1254	11.760492578303	0
0	1259	11.807292346194	1
0	1260	11.814913561938	0
0	1264	11.821943002251	1
0	1266	11.829577473475	0
0	1270	11.831263675821	1
0	1271	11.838866734445	0
0	1275	11.951208039678	1
0	1276	11.958879575334	0
0	1280	11.986513788635	1
0	1281	11.994205716175	0
0	1285	12.016795185248	1
0	1287	12.024504689271	0
0	1295	12.240535833128	1
0	1296	12.248377736935	0
0	1300	12.24838928856	1
0	1301	12.256235922356	0
0	1305	12.35411412515	1
0	1306	12.362024995034	0
0	1311	12.477545470893	1
0	1312	12.485532678484	0
0	1316	12.544656066116	1
0	1317	12.552685400661	0
0	1321	12.558678539336	1
0	1322	12.566716732317	0
0	1327	12.594097359949	1
0	1328	12.60215801539	0
0	1332	12.648337089952	1
0	1333	12.656378888841	0
0	1340	12.790049972417	1
0	1341	12.798024357305	0
0	1346	12.823375563476	1
0	1348	12.831472642853	0
0	1352	12.898552180486	1
0	1353	12.906907191499	0
0	1358	12.978301957006	1
0	1360	12.978421811629	2
0	1361	12.98652544408	1
0	1364	12.994735604045	0
0	1368	13.013281037402	1
0	1369	13.021448134177	0
0	1373	13.076983027479	1
0	1375	13.079109304198	2
0	1376	13.085049391477	1
0	1379	13.093103177	0
0	1384	13.128386909263	1
0	1385	13.136373781383	0
0	1389	13.190003870569	1
0	1390	13.197897497614	0
0	1394	13.227168773901	1
0	1395	13.235007204512	0
0	1400	13.251287224646	1
0	1402	13.25909024626	0
0	1406	13.283943224724	1
0	1407	13.291698809835	0
0	1414	13.36864937537	1
0	1415	13.376284561876	0
0	1419	13.394383253215	1
0	1420	13.401982599275	0
0	1425	13.456833703743	1
0	1426	13.464347456265	0
0	1430	13.475887391823	1
0	1432	13.483375412244	0
0	1437	13.506808142446	1
0	1438	13.514374532878	0
0	1443	13.591083867087	1
0	1444	13.598697184285	0
0	1448	13.649198007603	1
0	1449	13.656936540121	0
0	1453	13.720912158365	1
0	1454	13.728786776027	0
0	1459	13.745909270531	1
0	1460	13.753719719313	0
0	1464	13.756039835628	1
0	1465	13.763824575544	0
0	1470	13.787628449904	1
0	1471	13.795350523852	0
0	1477	13.869142425513	1
0	1478	13.87691638058	0
0	1485	14.057398576284	1
0	1486	14.065295056725	0
0	1490	14.14523424536	1
0	1491	14.153189224308	0
0	1497	14.173687954874	1
0	1498	14.181662070287	0
0	1503	14.250166491304	1
0	1505	14.258192501424	0
0	1509	14.271943677788	1
0	1510	14.279984588653	0
0	1514	14.286752820688	1
0	1515	14.294803896154	0
0	1519	14.314644125659	1
0	1520	14.322714414918	0
0	1525	14.33748934141	1
0	1526	14.345575436761	0
0	1530	14.425335129546	1
0	1531	14.433482584571	0
0	1536	14.443754481742	1
0	1537	14.451914920846	0
0	1541	14.464969996206	1
0	1542	14.473145441823	0
0	1546	14.594864616212	1
0	1548	14.602498508881	0
0	1555	14.804728219881	1
0	1556	14.812891817915	0
0	1562	14.952466696156	1
0	1563	14.960524627908	0
0	1567	14.992343554937	1
0	1569	15.000373432928	0
0	1573	15.047282578135	1
0	1574	15.055274124406	0
0	1580	15.232729517452	1
0	1581	15.240594334512	0
0	1585	15.241280282941	1
0	1586	15.249139353515	0
0	1590	15.280976403316	1
0	1591	15.288808905978	0
0	1595	15.289409772681	1
0	1597	15.291520557923	2
0	1598	15.297236654156	1
0	1601	15.305058325907	0
0	1606	15.317483951403	1
0	1607	15.325292178281	0
0	1611	15.363039999285	1
0	1613	15.370033804051	2
0	1615	15.370519542277	3
0	1616	15.370818143791	2
0	1619	15.378591175247	1
0	1622	15.386359103725	0
0	1627	15.411394074989	1
0	1628	15.419140542032	0
0	1632	15.431421818015	1
0	1633	15.43915524003	0
0	1637	15.448535236763	1
0	1638	15.45625754675	0
0	1643	15.525006593382	1
0	1645	15.531679635783	2
0	1646	15.532765677766	1
0	1649	15.540536660178	0
0	1655	15.598054344232	1
0	1656	15.605926906575	0
0	1660	15.609932882187	1
0	1661	15.617824212071	0
0	1668	15.704036814868	1
0	1669	15.711512544733	0
0	1673	15.726352417314	1
0	1674	15.733918526491	0
0	1679	15.743016478495	1
0	1680	15.750651516176	0
0	1685	15.805444897268	1
0	1686	15.813349721279	0
0	1692	15.875141467198	1
0	1693	15.883082350532	0
0	1697	15.896454171839	1
0	1698	15.90443895324	0
0	1702	15.91635522079	1
0	1703	15.924381433115	0
0	1707	15.958662317975	1
0	1708	15.966778051654	0
0	1713	15.99098693407	1
0	1715	15.999172423626	0
0	1720	16.014135656642	1
0	1721	16.022371842092	0
0	1725	16.073683595986	1
0	1727	16.078955099963	2
0	1728	16.082053124	1
0	1731	16.090441740314	0
0	1738	16.183888242409	1
0	1740	16.189156676473	2
0	1741	16.192011384512	1
0	1744	16.200105503048	0
0	1749	16.220763791854	1
0	1750	16.228756824974	0
0	1754	16.237336195501	1
0	1755	16.245272103537	0
0	1759	16.275108643914	1
0	1760	16.282917352828	0
0	1765	16.289143852003	1
0	1766	16.296906330097	0
0	1771	16.364053227947	1
0	1773	16.367743427482	2
0	1774	16.37157793483	1
0	1777	16.37907956002	0
0	1782	16.416063107321	1
0	1783	16.423740454586	0
0	1789	16.50179533714	1
0	1791	16.510312182561	0
0	1795	16.520875123879	1
0	1796	16.529239272904	0
0	1801	16.559945272817	1
0	1802	16.568013222063	0
0	1806	16.596177883776	1
0	1807	16.603989297693	0
0	1811	16.614449264138	1
0	1812	16.622137402506	0
0	1816	16.629907094575	1
0	1818	16.637493938499	0
0	1824	16.724518786845	1
0	1825	16.732647873108	0
0	1829	16.74001530868	1
0	1831	16.748215573226	0
0	1835	16.763499342363	1
0	1836	16.77170593514	0
0	1840	16.816692915549	1
0	1841	16.824946960016	0
0	1845	16.82910019318	1
0	1847	16.837365384674	0
0	1853	16.85258003426	1
0	1854	16.860866403277	0
0	1859	16.876434801374	1
0	1860	16.884742797505	0
0	1864	16.887368641837	1
0	1865	16.895686588538	0
0	1871	16.951042859281	1
0	1873	16.958735863663	2
0	1874	16.959419230955	1
0	1877	16.96778514507	0
0	1882	16.977707690621	1
0	1883	16.98603903212	0
0	1887	17.004729267267	1
0	1888	17.01301004684	0
0	1892	17.022329569532	1
0	1893	17.030577744721	0
0	1897	17.031843708657	1
0	1898	17.04007436568	0
0	1903	17.153243380471	1
0	1905	17.161794609117	0
0	1911	17.178133858266	1
0	1912	17.186724198166	0
0	1917	17.222288288493	1
0	1918	17.230919051454	0
0	1922	17.235107637968	1
0	1923	17.243750208307	0
0	1927	17.312722304466	1
0	1928	17.321437058185	0
0	1932	17.362772039159	1
0	1933	17.371533983178	0
0	1937	17.49278373071	1
0	1939	17.495933061957	2
0	1940	17.501670680769	1
0	1943	17.510566305984	0
0	1947	17.514181707417	1
0	1948	17.523089574242	0
0	1952	17.537917634199	1
0	1953	17.54684881865	0
0	1957	17.581372100105	1
0	1958	17.590256708389	0
0	1962	17.62733242928	1
0	1964	17.635479977497	2
0	1965	17.636091500018	1
0	1968	17.644827047341	0
0	1972	17.645520712416	1
0	1973	17.654231077399	0
0	1978	17.831703550902	1
0	1979	17.839909183713	0
0	1984	17.8581080349	1
0	1986	17.866184727689	0
0	1994	17.953511293658	1
0	1995	17.961472069371	0
0	1999	18.021964323735	1
0	2000	18.029775692974	0
0	2005	18.082034112973	1
0	2007	18.089718918173	0
0	2015	18.160757957935	1
0	2016	18.169336535063	0
0	2020	18.17363821085	1
0	2021	18.182207137587	0
0	2027	18.211743668635	1
0	2028	18.220284171981	0
0	2033	18.413202625882	1
0	2034	18.421524495478	0
0	2040	18.542730956404	1
0	2043	18.54479337673	2
0	2044	18.550743665201	1
0	2047	18.558738001825	0
0	2051	18.566852671118	1
0	2052	18.57481032552	0
0	2057	18.598220855873	1
0	2058	18.606108038414	0
0	2062	18.615687282734	1
0	2063	18.623535763494	0
0	2069	18.780407492866	1
0	2070	18.788149513208	0
0	2076	18.944238512885	1
0	2077	18.952232947908	0
0	2081	18.966155070334	1
0	2082	18.974169276506	0
0	2088	19.072093966398	1
0	2089	19.08003941615	0
0	2096	19.157605323887	1
0	2097	19.165496129642	0
0	2101	19.25067812833	1
0	2102	19.258510306028	0
0	2108	19.461153501227	1
0	2109	19.468856256733	0
0	2113	19.470096734145	1
0	2114	19.477794085086	0
0	2118	19.539091946114	1
0	2119	19.546697543859	0
0	2126	19.705812854096	1
0	2128	19.713242735701	0
0	2132	19.726349637175	1
0	2133	19.733787430349	0
0	2141	19.831110878482	1
0	2142	19.838589293397	0
0	2149	20.028501008334	1
0	2150	20.036057180532	0
0	2154	20.066270939017	1
0	2155	20.073842174477	0
0	2160	20.094982200672	1
0	2161	20.102564926889	0
0	2168	20.163840799897	1
0	2169	20.171451227203	0
0	2177	20.336109757422	1
0	2179	20.342541394177	2
0	2180	20.343596729934	1
0	2185	20.350440430356	2
0	2186	20.351084482564	1
0	2189	20.358573015557	0
0	2193	20.376602040342	1
0	2194	20.38409323396	0
0	2199	20.534243498438	1
0	2200	20.54175117078	0
0	2208	20.720329949263	1
0	2209	20.727852831139	0
0	2214	20.80099284437	1
0	2215	20.808501808666	0
0	2220	20.877830797534	1
0	2222	20.880522146494	2
0	2223	20.885326552011	1
0	2227	20.892807522861	2
0	2228	20.892821020322	1
0	2231	20.900314203128	0
0	2235	20.954783225736	1
0	2236	20.962265797214	0
0	2240	20.970079618404	1
0	2241	20.977559574925	0
0	2245	20.984724154989	1
0	2246	20.992201609701	0
0	2252	21.037848105105	1
0	2254	21.045316498381	0
0	2259	21.079619148869	1
0	2261	21.08654058892	2
0	2262	21.087080432602	1
0	2265	21.094540447829	0
0	2270	21.127280142196	1
0	2272	21.129738958682	2
0	2273	21.134733330415	1
0	2277	21.136224176321	2
0	2278	21.142185254252	1
0	2282	21.148371431555	2
0	2283	21.149635914351	1
0	2286	21.157085311354	0
0	2291	21.244572746214	1
0	2293	21.25079615092	2
0	2294	21.252006086176	1
0	2298	21.25943817183	0
0	2305	21.437879406268	1
0	2306	21.445604593894	0
0	2311	21.455006470796	1
0	2312	21.462770402109	0
0	2316	21.505672400406	1
0	2317	21.513553254264	0
0	2321	21.612905957517	1
0	2322	21.621046272617	0
0	2327	21.642428400656	1
0	2328	21.650643174622	0
0	2334	21.728619873814	1
0	2336	21.736734579248	0
0	2340	21.789424971524	1
0	2341	21.797373433764	0
0	2345	21.871943039087	1
0	2346	21.879676493774	0
0	2350	21.900656972723	1
0	2351	21.908318313503	0
0	2355	21.91474602659	1
0	2356	21.922372472881	0
0	2362	21.966297355325	1
0	2364	21.973853087673	2
0	2365	21.973934937973	1
0	2368	21.981580063317	0
0	2372	22.006161810211	1
0	2373	22.013838926795	0
0	2379	22.226688089742	1
0	2380	22.234591516509	0
0	2384	22.236144433636	1
0	2385	22.244048992762	0
0	2389	22.248796245409	1
0	2390	22.256690285061	0
0	2394	22.35866656008	1
0	2395	22.366470410854	0
0	2400	22.417081169395	1
0	2401	22.424837903596	0
0	2406	22.442460255855	1
0	2407	22.450196696393	0
0	2414	22.484219076499	1
0	2416	22.490371147435	2
0	2417	22.491922355899	1
0	2421	22.499619549074	0
0	2427	22.598416799301	1
0	2429	22.600580593969	2
0	2430	22.606030827935	1
0	2433	22.613638979341	0
0	2439	22.740402826269	1
0	2440	22.748171403441	0
0	2444	22.775097681861	1
0	2445	22.783046781675	0
0	2450	22.829303363274	1
0	2452	22.837120117536	2
0	2453	22.837551929691	1
0	2456	22.845848055847	0
0	2466	23.09619609601	1
0	2467	23.104095446586	0
0	2472	23.165536657425	1
0	2474	23.172893435845	2
0	2475	23.173453556592	1
0	2479	23.176626653334	2
0	2481	23.181372464315	1
0	2484	23.189293382124	0
0	2489	23.304589622298	1
0	2491	23.304762647345	2
0	2492	23.312541948759	1
0	2495	23.320496310866	0
0	2502	23.417959131241	1
0	2504	23.42328158784	2
0	2505	23.42594057697	1
0	2510	23.433867993498	0
0	2514	23.438355679957	1
0	2515	23.446122535669	0
0	2520	23.531789365636	1
0	2521	23.539800264318	0
0	2525	23.551819994258	1
0	2526	23.559836098262	0
0	2532	23.620673079077	1
0	2533	23.628707127508	0
0	2537	23.644954438408	1
0	2538	23.652994834202	0
0	2542	23.757043316311	1
0	2544	23.757151091426	2
0	2546	23.765003310216	1
0	2550	23.772920678132	0
0	2555	23.849360345352	1
0	2556	23.857454574917	0
0	2560	23.923827160615	1
0	2561	23.931941181868	0
0	2565	23.938624404592	1
0	2566	23.946742370169	0
0	2570	23.954590833678	1
0	2571	23.962713059539	0
0	2575	23.995100097196	1
0	2576	24.003233152136	0
0	2582	24.151370570907	1
0	2583	24.159545672576	0
0	2587	24.195703362158	1
0	2588	24.203890471455	0
0	2592	24.228223649508	1
0	2593	24.236419589444	0
0	2598	24.248043950014	1
0	2599	24.256245281353	0
0	2604	24.289287980083	1
0	2605	24.297555449149	0
0	2609	24.315553035207	1
0	2611	24.320900426613	2
0	2612	24.323940080516	1
0	2615	24.332366041308	0
0	2619	24.338859555818	1
0	2620	24.347355642264	0
0	2624	24.362161737864	1
0	2626	24.367745367696	2
0	2627	24.370769717006	1
0	2630	24.379419779145	0
0	2634	24.379869453516	1
0	2635	24.388564452502	0
0	2639	24.459606849095	1
0	2640	24.468716534668	0
0	2646	24.534790212878	1
0	2647	24.544328837844	0
0	2654	24.60953435799	1
0	2655	24.617813164694	0
0	2660	24.649956463668	1
0	2662	24.650163488559	2
0	2664	24.659236074133	1
0	2668	24.668486675122	0
0	2672	24.676745081856	1
0	2673	24.685941438095	0
0	2677	24.692360195282	1
0	2678	24.701508708139	0
0	2684	24.802720402062	1
0	2685	24.811544469052	0
0	2689	24.820636848305	1
0	2690	24.82941040189	0
0	2694	24.859189903392	1
0	2695	24.867856698274	0
0	2700	24.948598022912	1
0	2701	24.957026959283	0
0	2706	24.975927820099	1
0	2707	24.984162328793	0
0	2711	25.016291082227	1
0	2712	25.024074702452	0
0	2716	25.032694920618	1
0	2717	25.040309101656	0
0	2722	25.068420961103	1
0	2723	25.075999641771	0
0	2727	25.145699019513	1
0	2728	25.153468498934	0
0	2732	25.163084678438	1
0	2734	25.17089841421	0
0	2739	25.186301881723	1
0	2740	25.194175510675	0
0	2744	25.238981340965	1
0	2745	25.246994332027	0
0	2754	25.440445194009	1
0	2755	25.448362831835	0
0	2763	25.559465499762	1
0	2765	25.563649821027	2
0	2766	25.567678403597	1
0	2769	25.575975073995	0
0	2777	25.84891075289	1
0	2778	25.857629143139	0
0	2782	25.877227614824	1
0	2784	25.878782265917	2
0	2785	25.885952615977	1
0	2788	25.894679656105	0
0	2792	25.934835171924	1
0	2793	25.94357365323	0
0	2797	25.977226228131	1
0	2798	25.985974655567	0
0	2802	26.026345218343	1
0	2804	26.028884379414	2
0	2805	26.034955404249	1
0	2808	26.043527515397	0
0	2813	26.154453003217	1
0	2814	26.162529445789	0
0	2821	26.26023051645	1
0	2823	26.268277643235	0
0	2830	26.417303818859	1
0	2832	26.42531102108	0
0	2836	26.475271078312	1
0	2837	26.483102222135	0
0	2843	26.554714771539	1
0	2844	26.562490851938	0
0	2848	26.583448756511	1
0	2849	26.591216822831	0
0	2854	26.631275343449	1
0	2855	26.639030107217	0
0	2860	26.652174881395	1
0	2861	26.659923846431	0
0	2865	26.677612768322	1
0	2867	26.681221242236	2
0	2869	26.685354687118	1
0	2873	26.693094463962	0
0	2879	26.742647234243	1
0	2880	26.750371196756	0
0	2886	26.871958794683	1
0	2887	26.879647300071	0
0	2891	26.938594722872	1
0	2892	26.946265083541	0
0	2898	27.076282430755	1
0	2899	27.083915569553	0
0	2904	27.10711806777	1
0	2905	27.114742920059	0
0	2910	27.278962192529	1
0	2911	27.286541192414	0
0	2915	27.413555431062	1
0	2916	27.421098901339	0
0	2922	27.557315196053	1
0	2923	27.564821083053	0
0	2928	27.585205912971	1
0	2930	27.587048159299	2
0	2931	27.592704551803	1
0	2934	27.600201244296	0
0	2939	27.617825004332	1
0	2940	27.625315183939	0
0	2944	27.736877006391	1
0	2945	27.744336473099	0
0	2953	27.877508167163	1
0	2955	27.879965798707	2
0	2957	27.881469292838	3
0	2958	27.885370916709	2
0	2961	27.893274607424	1
0	2964	27.901219884444	0
0	2974	28.106276713124	1
0	2975	28.114736876388	0
0	2980	28.157492386453	1
0	2981	28.165977379562	0
0	2987	28.238565204765	1
0	2988	28.246933663955	0
0	2993	28.318380235382	1
0	2994	28.326442523122	0
0	3000	28.446652960337	1
0	3001	28.454602670626	0
0	3005	28.480034979701	1
0	3006	28.487955906239	0
0	3010	28.559429559737	1
0	3012	28.56728285829	0
0	3017	28.603253147016	1
0	3018	28.61106960912	0
0	3027	28.738121604801	1
0	3028	28.74582683895	0
0	3032	28.769292186779	1
0	3033	28.776972162976	0
0	3038	28.846265490671	1
0	3039	28.853883797999	0
0	3043	28.859867546585	1
0	3044	28.867475059147	0
0	3050	28.994084803149	1
0	3051	29.001587416768	0
0	3057	29.080283058267	1
0	3059	29.081893032012	2
0	3061	29.083310261931	3
0	3062	29.087791047888	2
0	3065	29.095314122383	1
0	3068	29.102852372982	0
0	3072	29.148277938714	1
0	3073	29.155924789724	0
0	3080	29.189546711934	1
0	3082	29.197173892238	0
0	3089	29.296306665658	1
0	3090	29.303899049362	0
0	3094	29.341145963874	1
0	3095	29.3492161923	0
0	3101	29.465671308281	1
0	3102	29.473122770621	0
0	3111	29.600615672821	1
0	3113	29.603049821939	2
0	3114	29.608083339439	1
0	3117	29.615551904841	0
0	3123	29.83407738312	1
0	3124	29.841573251159	0
0	3128	29.871162002782	1
0	3130	29.873498299416	2
0	3131	29.87866237014	1
0	3134	29.886163648142	0
0	3138	29.923331266177	1
0	3139	29.930837972161	0
0	3144	29.938520371746	1
0	3146	29.946028925238	0
0	3150	29.952853367569	1
0	3152	29.957661974003	2
0	3154	29.960363665271	1
0	3157	29.96787487724	0
0	3161	29.989870224815	1
0	3162	29.997385030923	0
0	3166	30.054778313455	1
0	3167	30.062301038014	0
0	3172	30.158182944382	1
0	3173	30.165718318297	0
0	3177	30.195575258401	1
0	3178	30.203104294357	0
0	3186	30.415286665841	1
0	3187	30.422853676077	0
0	3191	30.456115332758	1
0	3192	30.463687391373	0
0	3197	30.519096904915	1
0	3198	30.526676764293	0
0	3203	30.563915873664	1
0	3204	30.57150129402	0
0	3211	30.706615108897	1
0	3213	30.714218289339	0
0	3221	30.757547797571	1
0	3222	30.765157337159	0
0	3226	30.766513433455	1
0	3228	30.774124093539	0
0	3234	30.898366621661	1
0	3235	30.905852052343	0
0	3239	30.932589892602	1
0	3240	30.94007454383	0
0	3245	31.001909768865	1
0	3247	31.007138402274	2
0	3248	31.00939284179	1
0	3251	31.016875744377	0
0	3255	31.037668671846	1
0	3256	31.045150930858	0
0	3260	31.049181913332	1
0	3261	31.056663910328	0
0	3265	31.062368060916	1
0	3266	31.069849757846	0
0	3270	31.106386083379	1
0	3271	31.113866778803	0
0	3276	31.140202259144	1
0	3277	31.147682185358	0
0	3282	31.204864524364	1
0	3284	31.209817633108	2
0	3285	31.212342980159	1
0	3288	31.219821265931	0
0	3292	31.227870455922	1
0	3293	31.235348388701	0
0	3299	31.277264386518	1
0	3300	31.284741196627	0
0	3306	31.335563158283	1
0	3307	31.343038643757	0
0	3312	31.38852139801	1
0	3313	31.395995680601	0
0	3320	31.509293353448	1
0	3321	31.516764894295	0
0	3331	32.009242485114	1
0	3332	32.016702697572	0
0	3337	32.089074531224	1
0	3338	32.09653293794	0
0	3343	32.132278750601	1
0	3346	32.139736180435	0
0	3350	32.180433485363	1
0	3351	32.18788982668	0
0	3356	32.189200110201	1
0	3357	32.196656253387	0
0	3361	32.259024577052	1
0	3362	32.266479142535	0
0	3366	32.308968685517	1
0	3367	32.316422122909	0
0	3372	32.331878295112	1
0	3374	32.339331215157	0
0	3379	32.354806681188	1
0	3380	32.362259083534	0
0	3386	32.409415210372	1
0	3387	32.416866380005	0
0	3392	32.439735892062	1
0	3393	32.447186377422	0
0	3397	32.506925434937	1
0	3398	32.514374404422	0
0	3402	32.583230496204	1
0	3404	32.585874768826	2
0	3406	32.588862813543	3
0	3407	32.590677744905	2
0	3411	32.590990453555	3
0	3412	32.598124825703	2
0	3416	32.605571738609	1
0	3419	32.613018483635	0
0	3424	32.639254617924	1
0	3425	32.64670060371	0
0	3429	32.663319314488	1
0	3430	32.670764757931	0
0	3436	32.806818179777	1
0	3437	32.814260390843	0
0	3442	32.901589671813	1
0	3443	32.909029749646	0
0	3448	32.952992561257	1
0	3449	32.960431482563	0
0	3453	32.984572590152	1
0	3454	32.992010801109	0
0	3459	33.008884418986	1
0	3460	33.016322083174	0
0	3467	33.121811437741	1
0	3468	33.129246563274	0
0	3472	33.18607884481	1
0	3473	33.193512526353	0
0	3477	33.205858567101	1
0	3478	33.213291804337	0
0	3482	33.245685198596	1
0	3483	33.253117541377	0
0	3487	33.266392683822	1
0	3488	33.273824561625	0
0	3492	33.275869296275	1
0	3493	33.283300961304	0
0	3500	33.39794955836	1
0	3501	33.405378483465	0
0	3506	33.419156767927	1
0	3507	33.426585217271	0
0	3511	33.446324284897	1
0	3512	33.453752124856	0
0	3517	33.496588311092	1
0	3518	33.50401502386	0
0	3522	33.536922580199	1
0	3523	33.544348388703	0
0	3531	33.750884029309	1
0	3532	33.75834674274	0
0	3537	33.841383501243	1
0	3538	33.848899921608	0
0	3545	33.923181616138	1
0	3546	33.93074724908	0
0	3550	33.94652339372	1
0	3551	33.954103188288	0
0	3557	34.019966959296	1
0	3559	34.020250822897	2
0	3560	34.027591660498	1
0	3563	34.035221054285	0
0	3567	34.046390885348	1
0	3568	34.054031873742	0
0	3573	34.096548711193	1
0	3574	34.104220808068	0
0	3580	34.28348739659	1
0	3581	34.291277700728	0
0	3585	34.308011099555	1
0	3586	34.315817181625	0
0	3590	34.31784112565	1
0	3591	34.325653550068	0
0	3595	34.352323333759	1
0	3596	34.36015808787	0
0	3600	34.381515335283	1
0	3601	34.389369093317	0
0	3605	34.401240879139	1
0	3606	34.409107530735	0
0	3610	34.413401603615	1
0	3611	34.42127622516	0
0	3616	34.474153482749	1
0	3617	34.482068163218	0
0	3624	34.683581733175	1
0	3625	34.691629339543	0
0	3631	34.72214995942	1
0	3632	34.730022776276	0
0	3636	34.816517749938	1
0	3637	34.823993296829	0
0	3643	34.913256176773	1
0	3644	34.920711761137	0
0	3648	34.920934733648	1
0	3649	34.928393422994	0
0	3653	34.946689472332	1
0	3654	34.954158595045	0
0	3658	35.063445422328	1
0	3659	35.070962211867	0
0	3663	35.07930943667	1
0	3664	35.086832749847	0
0	3668	35.111545942719	1
0	3669	35.119082547215	0
0	3673	35.154758952946	1
0	3675	35.158094712273	2
0	3676	35.16231344829	1
0	3679	35.169871080037	0
0	3684	35.241333926237	1
0	3685	35.248924521722	0
0	3689	35.298551999003	1
0	3690	35.306166643316	0
0	3696	35.454733986378	1
0	3697	35.462415056604	0
0	3702	35.547600127531	1
0	3703	35.55532124703	0
0	3707	35.564954089095	1
0	3708	35.57268273899	0
0	3714	35.616588756874	1
0	3716	35.620634210946	2
0	3717	35.624339899696	1
0	3720	35.632094430353	0
0	3724	35.634634564284	1
0	3726	35.642393599068	0
0	3732	35.662214113987	1
0	3733	35.669985241216	0
0	3737	35.68527211056	1
0	3738	35.693053376695	0
0	3742	35.762919616925	1
0	3744	35.765517760264	2
0	3745	35.770735221105	1
0	3748	35.778554298374	0
0	3753	35.818224378891	1
0	3755	35.825687488257	0
0	3759	35.866446273142	1
0	3760	35.874042327555	0
0	3766	35.949236348995	1
0	3768	35.956685080575	0
0	3772	36.015024872393	1
0	3773	36.0225789842	0
0	3780	36.056202525323	1
0	3781	36.063824126358	0
0	3785	36.078195516348	1
0	3786	36.0858536598	0
0	3790	36.101304053054	1
0	3791	36.10900097189	0
0	3798	36.20873163624	1
0	3799	36.216606182115	0
0	3804	36.264142707366	1
0	3806	36.271807124764	0
0	3810	36.272443507103	1
0	3811	36.280107723378	0
0	3815	36.351525308078	1
0	3816	36.359175785376	0
0	3820	36.371267341217	1
0	3821	36.378879661781	0
0	3825	36.428160626358	1
0	3827	36.43271270204	2
0	3829	36.433953765375	3
0	3830	36.43566508426	2
0	3834	36.438571899853	3
0	3835	36.443155542397	2
0	3838	36.450632078876	1
0	3843	36.458094771082	0
0	3847	36.461328969495	1
0	3848	36.468789808732	0
0	3853	36.495244379336	1
0	3854	36.502787977451	0
0	3858	36.529845371415	1
0	3859	36.537475315031	0
0	3863	36.561796818169	1
0	3864	36.569454030196	0
0	3868	36.585463305001	1
0	3869	36.59311994471	0
0	3874	36.666486597413	1
0	3875	36.674141278414	0
0	3879	36.67599200991	1
0	3880	36.683646461187	0
0	3884	36.720002353496	1
0	3885	36.727655741323	0
0	3891	36.784176753737	1
0	3892	36.791826910963	0
0	3896	36.813194166006	1
0	3898	36.814102268411	2
0	3899	36.820833346402	1
0	3902	36.828469642253	0
0	3910	36.884912133345	1
0	3912	36.892524318626	0
0	3916	36.922465045435	1
0	3917	36.930063171518	0
0	3921	36.934264782589	1
0	3923	36.936054724471	2
0	3924	36.941858501759	1
0	3928	36.949449387563	0
0	3932	36.968950107541	1
0	3934	36.97653090214	0
0	3938	36.989777205425	1
0	3940	36.997350260474	0
0	3948	37.084803013296	1
0	3949	37.092340955455	0
0	3955	37.270890515853	1
0	3957	37.278360631663	0
0	3964	37.372922948038	1
0	3965	37.380560593564	0
0	3972	37.52806367797	1
0	3974	37.53569759248	0
0	3979	37.557680996237	1
0	3980	37.565314198887	0
0	3984	37.588796637055	1
0	3985	37.596429091976	0
0	3991	37.653956199896	1
0	3993	37.661346307316	2
0	3995	37.661546191811	3
0	3996	37.661587089464	2
0	3999	37.669217795754	1
0	4002	37.67684831878	0
0	4007	37.831197888967	1
0	4008	37.838824523838	0
0	4013	37.855632691263	1
0	4014	37.863258739948	0
0	4018	38.022394609151	1
0	4020	38.026067405152	2
0	4021	38.030016659651	1
0	4024	38.037638527509	0
0	4028	38.052202885929	1
0	4029	38.059824222205	0
0	4033	38.093788228034	1
0	4035	38.096900630819	2
0	4036	38.101408568124	1
0	4039	38.109028725695	0
0	4043	38.242271331333	1
0	4046	38.249820117178	2
0	4047	38.249888116602	1
0	4050	38.257504719608	0
0	4058	38.348540747596	1
0	4060	38.356297996112	0
0	4067	38.478311665217	1
0	4068	38.486464953838	0
0	4073	38.511472371411	1
0	4075	38.516386475776	2
0	4077	38.519049994142	3
0	4078	38.519733433974	2
0	4081	38.52802179018	1
0	4084	38.536337712051	0
0	4088	38.550614579796	1
0	4089	38.559006581066	0
0	4094	38.6986798852	1
0	4095	38.707426468064	0
0	4099	38.717381135573	1
0	4101	38.7259545934	2
0	4102	38.726141850305	1
0	4105	38.734909200915	0
0	4109	38.74051185429	1
0	4110	38.749290111378	0
0	4114	38.783276404437	1
0	4116	38.788724942633	2
0	4117	38.792087279894	1
0	4120	38.800904905927	0
0	4126	39.040836540546	1
0	4128	39.040895923545	2
0	4129	39.049805703714	1
0	4132	39.05876921818	0
0	4137	39.105789356863	1
0	4140	39.114717773478	0
0	4144	39.116249801497	1
0	4145	39.125171690597	0
0	4151	39.178578114023	1
0	4152	39.18744380236	0
0	4157	39.231540835834	1
0	4158	39.240391408399	0
0	4162	39.241766103919	1
0	4163	39.250610406359	0
0	4168	39.264540016873	1
0	4170	39.273370386249	0
0	4174	39.279464831071	1
0	4175	39.288286093244	0
0	4180	39.348701071191	1
0	4181	39.357480329567	0
0	4185	39.361702229314	1
0	4186	39.370473644801	0
0	4192	39.396276867015	1
0	4194	39.403505099806	2
0	4195	39.405027493532	1
0	4198	39.413772874106	0
0	4202	39.475509036495	1
0	4203	39.484212392105	0
0	4209	39.536467635224	1
0	4210	39.545134968346	0
0	4214	39.548619043915	1
0	4215	39.557279231976	0
0	4219	39.559126968568	1
0	4220	39.567780987432	0
0	4224	39.573787091202	1
0	4225	39.582432517787	0
0	4229	39.589383059799	1
0	4230	39.598019364317	0
0	4237	39.753797645132	1
0	4238	39.762338941991	0
0	4244	39.964075102183	1
0	4245	39.972497893386	0
0	4251	40.102303416241	1
0	4252	40.110650081524	0
0	4256	40.124046050602	1
0	4257	40.132380866722	0
0	4262	40.172488025374	1
0	4263	40.180796562487	0
0	4268	40.194506082436	1
0	4269	40.2028027298	0
0	4274	40.414496344905	1
0	4275	40.422676039718	0
0	4279	40.448934958087	1
0	4280	40.457096642263	0
0	4287	40.563491776359	1
0	4288	40.571594116414	0
0	4293	40.709251847578	1
0	4294	40.717279915383	0
0	4298	40.828358166986	1
0	4299	40.836326547425	0
0	4303	40.852682851275	1
0	4304	40.860639150936	0
0	4308	40.89537657686	1
0	4309	40.90331176115	0
0	4314	41.046658560948	1
0	4316	41.053721743253	2
0	4317	41.054519818294	1
0	4320	41.062377271711	0
0	4325	41.183650897085	1
0	4326	41.191446388902	0
0	4330	41.240015180724	1
0	4331	41.247783932304	0
0	4335	41.269794827505	1
0	4337	41.277549525014	0
0	4343	41.458716094246	1
0	4344	41.466668242618	0
0	4348	41.477914749885	1
0	4349	41.485798016432	0
0	4353	41.510992104015	1
0	4354	41.518759452029	0
0	4358	41.536917296108	1
0	4359	41.544596145998	0
0	4363	41.579732977494	1
0	4366	41.587270005802	0
0	4371	41.601200378863	1
0	4373	41.607428713117	2
0	4374	41.608995817323	1
0	4377	41.616930405172	0
0	4382	41.665618002435	1
0	4383	41.673805966123	0
0	4387	41.688527496938	1
0	4388	41.696705035928	0
0	4400	41.844068784271	1
0	4402	41.852114385094	0
0	4406	41.852784884382	1
0	4407	41.860858999058	0
0	4411	41.885857065527	1
0	4412	41.893945899101	0
0	4420	42.020375903661	1
0	4421	42.027959022595	0
0	4425	42.031117777012	1