version 3
run monitoring-exponential-9-20230106-17:25:38-1883
attr configname monitoring-exponential
attr datetime 20230106-17:25:38
attr datetimef 20230106-172538
attr experiment monitoring-exponential
attr inifile omnetpp.ini
attr iterationvars ""
attr iterationvarsd ""
attr iterationvarsf ""
attr measurement ""
attr network AerocomSys
attr processid 1883
attr repetition 9
attr replication #9
attr resultdir results
attr runnumber 9
attr seedset 9
config description "aircraft in monitoring mode, new capacity selected with exponential distrbution"
config **.X 0.1
config **.exponentialMean 1
config **.generationMode 1
config **.operationMode 0
config network AerocomSys
config repeat 10
config seed-set 9
config num-rngs 3
config **.size 100
config **.minCapacity 6000
config **.maxCapacity 15000
config sim-time-limit 300s
config warmup-period 10s
config rng-class omnetpp::cMersenneTwister
config **.nDL 15
config **.nAC 1
config **.kMean 0.05+9*0.001
config **.PacketGenerator.rng-0 0
config **.LinkSelector.rng-1 1
config **.DataLink[*].rng-2 2

vector 0 AerocomSys.airCraft[0].linkSelector queueLengthStatistic:vector ETV
attr recordingmode vector
attr source queueLength
attr title "queue length statistic"
vector 1 AerocomSys.airCraft[0].linkSelector serviceTimeStatistic:vector ETV
attr recordingmode vector
attr source serviceTime
attr title "service time statistic"
vector 2 AerocomSys.airCraft[0].linkSelector waitingTimeStatistic:vector ETV
attr recordingmode vector
attr source waitingTime
attr title "waiting time statistic"
vector 3 AerocomSys.controlTower responseTimeStatistic:vector ETV
attr recordingmode vector
attr source responseTime
attr title "response time statistic"
0	907	10.014423893808	1
0	909	10.022833264627	0
0	914	10.043899056115	1
0	915	10.05228454726	0
0	920	10.142873433972	1
0	922	10.151179722688	0
0	926	10.156805520871	1
0	927	10.165100780657	0
0	932	10.212116391086	1
0	933	10.220368153065	0
0	937	10.225988013515	1
0	938	10.23422893797	0
0	942	10.238493625472	1
0	943	10.246724804001	0
0	947	10.268193814792	1
0	948	10.27640193937	0
0	952	10.281296985562	1
0	953	10.28949498017	0
0	965	10.514217572099	1
0	966	10.522224584281	0
0	970	10.539409581801	1
0	971	10.547393528779	0
0	975	10.55214211851	1
0	976	10.560114458361	0
0	980	10.577862513931	1
0	981	10.585811509418	0
0	988	10.68964746348	1
0	989	10.69758354957	0
0	994	10.746215038743	1
0	995	10.754091718985	0
0	999	10.782531246656	1
0	1000	10.790370255054	0
0	1005	10.801662017343	1
0	1006	10.809493085764	0
0	1010	10.814283206695	1
0	1011	10.822114973377	0
0	1015	10.833375633595	1
0	1016	10.841208456794	0
0	1021	10.844459027584	1
0	1022	10.852292464234	0
0	1026	10.889827771431	1
0	1027	10.897663720186	0
0	1031	10.926241019824	1
0	1032	10.934078985976	0
0	1036	10.940468153286	1
0	1037	10.948306907944	0
0	1041	10.955224885686	1
0	1042	10.963064458369	0
0	1047	11.165194784602	1
0	1048	11.173046015289	0
0	1053	11.20781097409	1
0	1055	11.208200981221	2
0	1056	11.215664575159	1
0	1060	11.223518613214	0
0	1064	11.283549278678	1
0	1065	11.291385676373	0
0	1071	11.336018062493	1
0	1072	11.343747909399	0
0	1079	11.514573017599	1
0	1081	11.518457662661	2
0	1083	11.520585172333	3
0	1084	11.522187292182	2
0	1088	11.523191921123	3
0	1089	11.529864000171	2
0	1092	11.537604698606	1
0	1095	11.545411010227	0
0	1100	11.762917104549	1
0	1101	11.77080171278	0
0	1106	11.84511733969	1
0	1107	11.853006560293	0
0	1113	11.924461174107	1
0	1114	11.932354851926	0
0	1119	12.022373185337	1
0	1120	12.030272370405	0
0	1124	12.03431192771	1
0	1125	12.042211784821	0
0	1130	12.107079459387	1
0	1131	12.114983415125	0
0	1138	12.211751089645	1
0	1139	12.219560664412	0
0	1144	12.319269415816	1
0	1145	12.327185347461	0
0	1151	12.361445310511	1
0	1152	12.36936362687	0
0	1156	12.370466359838	1
0	1157	12.378385186452	0
0	1163	12.443429573686	1
0	1164	12.45135252972	0
0	1169	12.520097748299	1
0	1170	12.528025048082	0
0	1174	12.596846461863	1
0	1175	12.604778114731	0
0	1179	12.606437212836	1
0	1180	12.614369410014	0
0	1187	12.775194278496	1
0	1188	12.782793359314	0
0	1192	12.796257299489	1
0	1193	12.803864093807	0
0	1197	12.82560170145	1
0	1198	12.833219268138	0
0	1203	12.909961911102	1
0	1204	12.917610617169	0
0	1211	13.075210800859	1
0	1212	13.082921247995	0
0	1217	13.123429692374	1
0	1218	13.131158343582	0
0	1223	13.161691409643	1
0	1224	13.169434567073	0
0	1228	13.2329426094	1
0	1229	13.240712926035	0
0	1234	13.371035914126	1
0	1235	13.378859414702	0
0	1239	13.388289117655	1
0	1241	13.396119314171	0
0	1245	13.473395248189	1
0	1247	13.475726042445	2
0	1248	13.481258642683	1
0	1251	13.489125118722	0
0	1256	13.505960299897	1
0	1258	13.513836471868	0
0	1262	13.53025776577	1
0	1264	13.534663488952	2
0	1265	13.538294204008	1
0	1268	13.546395380578	0
0	1276	13.638883629397	1
0	1277	13.64699353271	0
0	1282	13.669375553514	1
0	1284	13.673776470646	2
0	1285	13.677480620035	1
0	1288	13.685584401857	0
0	1295	13.721983277247	1
0	1297	13.729943357476	0
0	1301	13.743379901004	1
0	1302	13.75143355887	0
0	1306	13.791159470938	1
0	1307	13.799245276841	0
0	1311	13.801027253093	1
0	1313	13.808901984927	0
0	1317	13.8149443909	1
0	1319	13.822803807011	0
0	1323	13.848780031233	1
0	1324	13.856761578149	0
0	1329	14.017541030576	1
0	1330	14.025591275491	0
0	1334	14.03072178974	1
0	1335	14.038769973798	0
0	1340	14.088079580884	1
0	1341	14.096118809128	0
0	1345	14.110546212748	1
0	1346	14.118581938495	0
0	1351	14.182982977465	1
0	1353	14.187648379462	2
0	1354	14.191007431237	1
0	1357	14.199030638259	0
0	1362	14.263265992957	1
0	1363	14.271277990679	0
0	1367	14.320164296429	1
0	1368	14.328167489669	0
0	1374	14.493580927778	1
0	1375	14.501557405379	0
0	1379	14.525710403337	1
0	1380	14.533681950814	0
0	1384	14.547746671859	1
0	1385	14.555714841492	0
0	1389	14.589069287005	1
0	1391	14.596015098251	2
0	1392	14.597031130184	1
0	1396	14.604991755566	0
0	1400	14.612745876622	1
0	1401	14.620704099462	0
0	1406	14.689498769245	1
0	1407	14.69744527856	0
0	1411	14.748638405552	1
0	1412	14.756575912855	0
0	1417	14.770891282457	1
0	1418	14.778825407791	0
0	1422	14.88257114455	1
0	1423	14.890488340323	0
0	1427	14.906381381536	1
0	1428	14.914294977253	0
0	1432	14.919533966312	1
0	1434	14.923168699495	2
0	1435	14.927445574789	1
0	1438	14.935355988373	0
0	1444	15.075271070257	1
0	1445	15.083159223887	0
0	1449	15.087158767134	1
0	1450	15.095045136124	0
0	1455	15.208268294006	1
0	1456	15.216136527351	0
0	1460	15.223749879402	1
0	1461	15.231615800456	0
0	1465	15.237699242925	1
0	1467	15.239790302522	2
0	1468	15.245563081699	1
0	1472	15.245843590346	2
0	1473	15.253425747092	1
0	1479	15.261287239628	0
0	1483	15.304699915927	1
0	1484	15.312553768579	0
0	1489	15.49285761147	1
0	1490	15.500656532282	0
0	1494	15.507834175588	1
0	1496	15.511965536017	2
0	1497	15.515627910584	1
0	1500	15.523418949633	0
0	1505	15.577141851133	1
0	1506	15.584955357547	0
0	1510	15.604680820751	1
0	1511	15.612490271943	0
0	1519	15.662286778575	1
0	1521	15.670087760661	0
0	1527	15.711717680082	1
0	1528	15.719394657651	0
0	1533	15.788537859429	1
0	1534	15.796231199647	0
0	1539	15.943095776133	1
0	1540	15.950822249336	0
0	1546	16.049010800515	1
0	1547	16.056752579096	0
0	1553	16.0796360476	1
0	1555	16.086726344618	2
0	1556	16.08737316472	1
0	1559	16.095109105064	0
0	1564	16.123956839413	1
0	1565	16.13168722041	0
0	1569	16.133828253742	1
0	1570	16.141557136022	0
0	1574	16.143925440895	1
0	1576	16.149912574158	2
0	1577	16.151652790782	1
0	1580	16.159378968344	0
0	1584	16.286928270313	1
0	1586	16.293935895174	2
0	1587	16.294633982532	1
0	1590	16.302338532245	0
0	1594	16.30645976198	1
0	1595	16.314162528303	0
0	1599	16.341492089568	1
0	1600	16.349189577675	0
0	1605	16.408691360323	1
0	1606	16.416378743935	0
0	1611	16.569859532503	1
0	1613	16.574593190924	2
0	1614	16.577522789649	1
0	1617	16.585184903396	0
0	1625	16.682994642358	1
0	1626	16.690695377028	0
0	1630	16.705273457895	1
0	1631	16.713002263318	0
0	1636	16.827258731519	1
0	1637	16.83514493715	0
0	1641	16.906747157371	1
0	1642	16.914686825403	0
0	1649	17.016799671202	1
0	1650	17.024764437773	0
0	1655	17.071463831331	1
0	1656	17.079246435463	0
0	1660	17.081476774123	1
0	1661	17.089222284329	0
0	1665	17.113101177331	1
0	1666	17.120731819409	0
0	1675	17.270706571269	1
0	1677	17.2713631821	2
0	1678	17.278500484507	1
0	1681	17.286281438638	0
0	1687	17.412473693681	1
0	1688	17.42009948906	0
0	1692	17.43106482899	1
0	1693	17.438717887276	0
0	1697	17.457117507018	1
0	1699	17.464809099805	0
0	1708	17.63986690645	1
0	1709	17.647700207712	0
0	1714	17.684553084327	1
0	1715	17.692344648264	0
0	1721	17.757025766396	1
0	1722	17.764750577643	0
0	1726	17.807383089492	1
0	1727	17.815062187431	0
0	1732	17.859476914966	1
0	1733	17.867109289118	0
0	1737	17.870928948024	1
0	1738	17.878551126799	0
0	1742	17.953249764225	1
0	1743	17.960799449417	0
0	1750	18.006006713872	1
0	1751	18.013696986787	0
0	1756	18.100179194463	1
0	1757	18.107881086769	0
0	1765	18.308370098234	1
0	1767	18.312741597851	2
0	1768	18.316097803027	1
0	1771	18.323826469268	0
0	1776	18.657233217669	1
0	1777	18.665004566219	0
0	1781	18.670158448162	1
0	1784	18.676003497449	2
0	1785	18.677931423167	1
0	1788	18.685705376618	0
0	1796	18.907566622509	1
0	1798	18.909284592371	2
0	1799	18.915369593496	1
0	1802	18.923173554301	0
0	1806	18.931551932518	1
0	1807	18.939357946875	0
0	1811	18.946963239	1
0	1812	18.954771210071	0
0	1816	18.970166130696	1
0	1817	18.977977049598	0
0	1821	19.035538677511	1
0	1823	19.036401127666	2
0	1824	19.043357913706	1
0	1829	19.050947958409	2
0	1830	19.051178145922	1
0	1833	19.058999374539	0
0	1837	19.059298167669	1
0	1838	19.067120431154	0
0	1843	19.158446876103	1
0	1844	19.166235770634	0
0	1848	19.232861088481	1
0	1849	19.24057231155	0
0	1853	19.251244513006	1
0	1854	19.258936786002	0
0	1859	19.344183214658	1
0	1861	19.352041959876	0
0	1867	19.414368150698	1
0	1869	19.422235935943	0
0	1876	19.481181355549	1
0	1877	19.489057765877	0
0	1883	19.563187044838	1
0	1884	19.571074067369	0
0	1888	19.614481874961	1
0	1889	19.622375550011	0
0	1895	19.665358751632	1
0	1896	19.67325903609	0
0	1900	19.720987876759	1
0	1902	19.728895400668	0
0	1907	19.751615520096	1
0	1908	19.759527035484	0
0	1914	19.86839179342	1
0	1915	19.87631856446	0
0	1920	19.93931140065	1
0	1921	19.947247465375	0
0	1925	19.947677064742	1
0	1927	19.955614227186	0
0	1932	19.991047245798	1
0	1934	19.993745929795	2
0	1936	19.998990104026	1
0	1939	20.006934006271	0
0	1945	20.077491835855	1
0	1946	20.085446071226	0
0	1950	20.116499247512	1
0	1953	20.124458627404	0
0	1959	20.297567913896	1
0	1961	20.305551261563	0
0	1965	20.322719951854	1
0	1966	20.33070664028	0
0	1974	20.506064115459	1
0	1975	20.513657871656	0
0	1979	20.567928635784	1
0	1982	20.575385125429	0
0	1986	20.612326884908	1
0	1987	20.619783017991	0
0	1991	20.640078642265	1
0	1993	20.642190293909	2
0	1994	20.647542159458	1
0	1997	20.655007665018	0
0	2001	20.730753666284	1
0	2002	20.738241412324	0
0	2008	20.792668562423	1
0	2009	20.800172943031	0
0	2014	20.866824965178	1
0	2015	20.874349366793	0
0	2022	20.958052508063	1
0	2023	20.965601686641	0
0	2028	20.988470733566	1
0	2029	20.996028209903	0
0	2034	21.112412692061	1
0	2036	21.12000416784	0
0	2041	21.200459759604	1
0	2043	21.205083423591	2
0	2044	21.208075574674	1
0	2047	21.215693502357	0
0	2058	21.600343956712	1
0	2059	21.608072306843	0
0	2063	21.61059150738	1
0	2065	21.61832278509	0
0	2071	21.728556362257	1
0	2073	21.736321501262	0
0	2079	21.774821093108	1
0	2081	21.782599593317	0
0	2090	21.981061349689	1
0	2092	21.988737617853	2
0	2093	21.988750557595	1
0	2096	21.99644091228	0
0	2100	22.014059636089	1
0	2101	22.021753767821	0
0	2106	22.058501271788	1
0	2107	22.066202044835	0
0	2111	22.105771850948	1
0	2113	22.113434846837	0
0	2118	22.150897846986	1
0	2119	22.158567755322	0
0	2123	22.215813820551	1
0	2124	22.223538194636	0
0	2130	22.38606675455	1
0	2131	22.393816834617	0
0	2136	22.464437118009	1
0	2137	22.472199088577	0
0	2141	22.517774589288	1
0	2143	22.525544673206	0
0	2149	22.614472397914	1
0	2151	22.622257234207	0
0	2156	22.650935557906	1
0	2157	22.658725971632	0
0	2164	22.946777850358	1
0	2165	22.954613813549	0
0	2170	22.965665913961	1
0	2172	22.971551344274	2
0	2173	22.973504803355	1
0	2176	22.981344907818	0
0	2180	23.036303848298	1
0	2182	23.044153700558	0
0	2186	23.071730222673	1
0	2187	23.079585584589	0
0	2192	23.176295923429	1
0	2193	23.184167593034	0
0	2198	23.289586418405	1
0	2199	23.297475832978	0
0	2204	23.30279547957	1
0	2205	23.31068696832	0
0	2212	23.487370806115	1
0	2214	23.490074722053	2
0	2215	23.495291392657	1
0	2219	23.50321323266	0
0	2223	23.538131602975	1
0	2224	23.546060229476	0
0	2228	23.601094670349	1
0	2229	23.609033292224	0
0	2234	23.671691386284	1
0	2236	23.672390649032	2
0	2238	23.678587368376	3
0	2239	23.679641245386	2
0	2242	23.687565719271	1
0	2245	23.695463366736	0
0	2253	23.840477427407	1
0	2254	23.848177365688	0
0	2264	24.02876448794	1
0	2265	24.036603301223	0
0	2271	24.08886896391	1
0	2272	24.096695320865	0
0	2277	24.208511929552	1
0	2278	24.216313608609	0
0	2283	24.248643181356	1
0	2284	24.256436617646	0
0	2290	24.422100068732	1
0	2291	24.42975710985	0
0	2295	24.515437578638	1
0	2296	24.523176656341	0
0	2300	24.530488162824	1
0	2301	24.5382241966	0
0	2308	24.724191285304	1
0	2309	24.731888355962	0
0	2314	24.834491607654	1
0	2316	24.842166666428	0
0	2322	24.917369098757	1
0	2324	24.920894874538	2
0	2325	24.925027700894	1
0	2328	24.932684785856	0
0	2335	25.081046110496	1
0	2336	25.088672418414	0
0	2340	25.1070401425	1
0	2341	25.114579976161	0
0	2348	25.223492241135	1
0	2349	25.231098963214	0
0	2356	25.312487481085	1
0	2357	25.320223938747	0
0	2362	25.350341092435	1
0	2363	25.358033315838	0
0	2368	25.428849733904	1
0	2369	25.436762650433	0
0	2373	25.437671208949	1
0	2374	25.445597831727	0
0	2378	25.447104250161	1
0	2379	25.455045582032	0
0	2383	25.455052934773	1
0	2385	25.463006703603	0
0	2390	25.51139581892	1
0	2392	25.515636983583	2
0	2393	25.519103522013	1
0	2396	25.526821860691	0
0	2401	25.596348531918	1
0	2402	25.604175102012	0
0	2407	25.625957534619	1
0	2408	25.633826400293	0
0	2412	25.652128641395	1
0	2413	25.660035274147	0
0	2422	25.850463699402	1
0	2423	25.858580009195	0
0	2428	25.905755396099	1
0	2429	25.913884928759	0
0	2433	25.985973984542	1
0	2434	25.99412277805	0
0	2439	26.044017136629	1
0	2440	26.052179923569	0
0	2444	26.075794731593	1
0	2445	26.083965200067	0
0	2449	26.104696404488	1
0	2450	26.11287387187	0
0	2459	26.350766590047	1
0	2461	26.358890276585	0
0	2465	26.381808390954	1
0	2466	26.389889113091	0
0	2470	26.538843160289	1
0	2471	26.546713316604	0
0	2475	26.627491545782	1
0	2477	26.635247610376	0
0	2481	26.659832081508	1
0	2482	26.667547342568	0
0	2486	26.702886337599	1
0	2487	26.710547939382	0
0	2491	26.730194228839	1
0	2493	26.734878334186	2
0	2494	26.73782218146	1
0	2497	26.745440787559	0
0	2502	26.818926236556	1
0	2503	26.826446864175	0
0	2507	26.827539833611	1
0	2508	26.835050203329	0
0	2512	26.847858833479	1
0	2514	26.852080844694	2
0	2515	26.855345115883	1
0	2518	26.86282256252	0
0	2526	26.985618158139	1
0	2527	26.993411189793	0
0	2533	27.18944801424	1
0	2535	27.192370429786	2
0	2536	27.197330102005	1
0	2539	27.205208309169	0
0	2543	27.299789068015	1
0	2544	27.307617176842	0
0	2548	27.308481890691	1
0	2549	27.316305778382	0
0	2555	27.467763410103	1
0	2556	27.475510750522	0
0	2561	27.512833522555	1
0	2562	27.520559474373	0
0	2567	27.560814401658	1
0	2568	27.568517712939	0
0	2572	27.572460478817	1
0	2574	27.580158314711	0
0	2578	27.672832166995	1
0	2580	27.677964952112	2
0	2581	27.680483133932	1
0	2585	27.68813055162	0
0	2591	27.751808557755	1
0	2592	27.759423045653	0
0	2596	27.782753488871	1
0	2597	27.790353778041	0
0	2601	27.844457494703	1
0	2602	27.852029629175	0
0	2607	27.887050971964	1
0	2608	27.894603792994	0
0	2612	27.912670629237	1
0	2613	27.920211880755	0
0	2618	27.948182252213	1
0	2619	27.955707525625	0
0	2624	28.0699980033	1
0	2625	28.077468977683	0
0	2632	28.20986434721	1
0	2633	28.217303784348	0
0	2637	28.230113960075	1
0	2638	28.237598292833	0
0	2643	28.375098310507	1
0	2644	28.382920633413	0
0	2652	28.562897301652	1
0	2653	28.571205624771	0
0	2657	28.573884478085	1
0	2658	28.582223111379	0
0	2662	28.62261845422	1
0	2663	28.631094239067	0
0	2667	28.634397712621	1
0	2669	28.634439539503	2
0	2670	28.642907327458	1
0	2673	28.651441550383	0
0	2678	28.690741207637	1
0	2680	28.692113304346	2
0	2681	28.699416448785	1
0	2684	28.708117766006	0
0	2689	28.824238995282	1
0	2690	28.832848388047	0
0	2697	28.906639865683	1
0	2698	28.915176206363	0
0	2702	28.927166285808	1
0	2704	28.935717472013	0
0	2708	28.97217751851	1
0	2709	28.980761440086	0
0	2717	29.272174415034	1
0	2718	29.280333216602	0
0	2722	29.297155394892	1
0	2724	29.298576261382	2
0	2725	29.305219989024	1
0	2728	29.313253787148	0
0	2732	29.324843977729	1
0	2733	29.332803811802	0
0	2739	29.485445699563	1
0	2741	29.485501193053	2
0	2742	29.493668568165	1
0	2745	29.501893927081	0
0	2749	29.559626111808	1
0	2750	29.567871500818	0
0	2757	29.844098923423	1
0	2758	29.852106039523	0
0	2764	29.943593045806	1
0	2765	29.951457399195	0
0	2769	30.037435308438	1
0	2770	30.045169596939	0
0	2774	30.071293049968	1
0	2775	30.07898146166	0
0	2781	30.196034445065	1
0	2782	30.204029132163	0
0	2787	30.315927812646	1
0	2789	30.320669687102	2
0	2790	30.324343464206	1
0	2794	30.332790335732	0
0	2799	30.414022765334	1
0	2800	30.422536722594	0
0	2805	30.484104466739	1
0	2806	30.492641231723	0
0	2810	30.532011757501	1
0	2811	30.54056418411	0
0	2815	30.64663144849	1
0	2816	30.655221580271	0
0	2820	30.763652925803	1
0	2821	30.772281897382	0
0	2829	30.938876985846	1
0	2830	30.947564776015	0
0	2834	30.958097958195	1
0	2835	30.966792249233	0
0	2839	30.994711467498	1
0	2841	31.003418168819	0
0	2846	31.037324785078	1
0	2847	31.046045975027	0
0	2852	31.083961848618	1
0	2854	31.086388543885	2
0	2856	31.091308931049	3
0	2857	31.092698950643	2
0	2860	31.101439040136	1
0	2863	31.110182120163	0
0	2867	31.212550730444	1
0	2868	31.221224522355	0
0	2874	31.269293216948	1
0	2876	31.277910481753	0
0	2880	31.309727491937	1
0	2881	31.318304923441	0
0	2885	31.323444215748	1
0	2886	31.332008217921	0
0	2890	31.361029341654	1
0	2892	31.362006018367	2
0	2894	31.368159321438	3
0	2895	31.369556760741	2
0	2898	31.378075923213	1
0	2902	31.386586853014	0
0	2906	31.388769648137	1
0	2907	31.397270266328	0
0	2914	31.470994128395	1
0	2915	31.47941628718	0
0	2920	31.522014114249	1
0	2922	31.530388313276	0
0	2926	31.553783205354	1
0	2927	31.562127815803	0
0	2935	31.78987791828	1
0	2936	31.7980090219	0
0	2940	31.811884088298	1
0	2941	31.819995846465	0
0	2945	31.830685034481	1
0	2946	31.838780337653	0
0	2950	31.863369490855	1
0	2951	31.871436346233	0
0	2956	31.910633333358	1
0	2957	31.918659403199	0
0	2962	32.053297216971	1
0	2963	32.061202641044	0
0	2967	32.073142355659	1
0	2968	32.081031284163	0
0	2976	32.388719217197	1
0	2977	32.397098946312	0
0	2983	32.541360976831	1
0	2984	32.549622511939	0
0	2988	32.554788906622	1
0	2989	32.563040203535	0
0	2993	32.577890825552	1
0	2995	32.586124567544	0
0	2999	32.609014467201	1
0	3002	32.617205767155	0
0	3006	32.633742509962	1
0	3008	32.641934117823	0
0	3012	32.64943234	1
0	3014	32.657612189033	0
0	3018	32.669591019195	1
0	3019	32.677755809657	0
0	3024	32.716189822953	1
0	3027	32.722022513632	2
0	3028	32.724320015335	1
0	3031	32.732444201336	0
0	3036	32.793324053964	1
0	3037	32.801397616607	0
0	3046	33.000333671301	1
0	3047	33.00825908149	0
0	3051	33.012980178433	1
0	3052	33.020896713816	0
0	3057	33.054769183892	1
0	3058	33.062656534276	0
0	3064	33.130895906814	1
0	3065	33.138730640466	0
0	3070	33.168657576917	1
0	3072	33.175299949629	2
0	3073	33.176444506422	1
0	3076	33.184239997696	0
0	3081	33.217996119253	1
0	3083	33.225771506172	0
0	3087	33.236567951045	1
0	3088	33.244330799935	0
0	3092	33.303224987551	1
0	3094	33.306222123912	2
0	3095	33.310943166709	1
0	3098	33.318656206772	0
0	3106	33.516870673421	1
0	3108	33.524142698141	2
0	3109	33.52444908118	1
0	3112	33.532022623899	0
0	3117	33.668594614076	1
0	3118	33.676076795996	0
0	3123	33.69168517608	1
0	3124	33.69918246506	0
0	3129	33.724302781255	1
0	3130	33.731849086503	0
0	3135	33.827216054292	1
0	3136	33.834921302742	0
0	3142	34.028399281648	1
0	3144	34.031907051207	2
0	3146	34.036168302512	1
0	3149	34.043921068	0
0	3153	34.084463143318	1
0	3155	34.085191784615	2
0	3156	34.092116366075	1
0	3159	34.099754048578	0
0	3166	34.255477669233	1
0	3168	34.263149279711	0
0	3172	34.312541452708	1
0	3174	34.320095006312	0
0	3178	34.364451230183	1
0	3179	34.371900502308	0
0	3184	34.391283165296	1
0	3185	34.398789821848	0
0	3189	34.442543891174	1
0	3191	34.450351949277	0
0	3196	34.531808387525	1
0	3198	34.539979442171	0
0	3203	34.558052462992	1
0	3204	34.566186975089	0
0	3208	34.619110025174	1
0	3210	34.627160771793	0
0	3215	34.675831923902	1
0	3216	34.684288779372	0
0	3224	34.830377627779	1
0	3225	34.838259459377	0
0	3232	34.864721201847	1
0	3233	34.872668625283	0
0	3237	34.880712914224	1
0	3238	34.888691253755	0
0	3246	35.053952886036	1
0	3247	35.062183062934	0
0	3254	35.093981634733	1
0	3255	35.102195339085	0
0	3259	35.106294435749	1
0	3260	35.114503086416	0
0	3265	35.151932141772	1
0	3266	35.160122114947	0
0	3270	35.206076844986	1
0	3271	35.214244769073	0
0	3276	35.242367794064	1
0	3278	35.242522675653	2
0	3279	35.250521005896	1
0	3283	35.258670919726	0
0	3287	35.274921885813	1
0	3288	35.283061945325	0
0	3292	35.34120520028	1
0	3293	35.349318611109	0
0	3297	35.387357814566	1
0	3299	35.395452772909	0
0	3304	35.468529668544	1
0	3305	35.476592376014	0
0	3310	35.530359003516	1
0	3311	35.538397317104	0
0	3315	35.54045503803	1
0	3316	35.548489382384	0
0	3321	35.650554162917	1
0	3323	35.658545475136	0
0	3330	35.794819585629	1
0	3331	35.803239447376	0
0	3335	35.809591976352	1
0	3336	35.81808982213	0
0	3340	35.871043644802	1
0	3341	35.879882021145	0
0	3346	35.885593961354	1
0	3347	35.894517001715	0
0	3351	36.017692991191	1
0	3352	36.026085284883	0
0	3356	36.048966426238	1
0	3358	36.052012763479	2
0	3359	36.057195438168	1
0	3363	36.0653825361	0
0	3367	36.097264371815	1
0	3368	36.105457179417	0
0	3374	36.239189980645	1
0	3375	36.247325550373	0
0	3379	36.25894242529	1
0	3380	36.266999088985	0
0	3385	36.324516847851	1
0	3386	36.332322191076	0
0	3395	36.533345898911	1
0	3397	36.541254462168	0
0	3407	36.873858691429	1
0	3408	36.882398240927	0
0	3412	36.898221700457	1
0	3413	36.906766165278	0
0	3417	36.933625070947	1
0	3418	36.942176688617	0
0	3423	36.999613940012	1
0	3424	37.008178921998	0
0	3430	37.155234783501	1
0	3431	37.163831448431	0
0	3436	37.327842440732	1
0	3438	37.327897407891	2
0	3439	37.336072621027	1
0	3442	37.344267030009	0
0	3446	37.354274052848	1
0	3447	37.36239044563	0
0	3451	37.38427831037	1
0	3452	37.392269289594	0
0	3458	37.52456775166	1
0	3460	37.527819688554	2
0	3461	37.533032562075	1
0	3464	37.541480217092	0
0	3470	37.563893974466	1
0	3471	37.572279668098	0
0	3475	37.580408651735	1
0	3476	37.588761560232	0
0	3483	37.699705738137	1
0	3485	37.707462130897	0
0	3490	37.795885495108	1
0	3491	37.803528104	0
0	3498	37.919022577396	1
0	3499	37.926626080186	0
0	3504	38.044000872539	1
0	3505	38.051601287591	0
0	3510	38.083348762804	1
0	3511	38.090948206239	0
0	3515	38.107692791879	1
0	3516	38.115291634311	0
0	3521	38.168924536681	1
0	3522	38.176521867851	0
0	3526	38.202611301276	1
0	3527	38.210207801278	0
0	3531	38.216065061082	1
0	3532	38.223661229184	0
0	3537	38.268745271704	1
0	3538	38.276340140483	0
0	3542	38.288989866623	1
0	3543	38.296584236201	0
0	3548	38.330374926334	1
0	3549	38.337968275622	0
0	3553	38.369242819867	1
0	3554	38.376835211172	0
0	3559	38.501485885756	1
0	3560	38.509075019456	0
0	3564	38.577144996508	1
0	3565	38.584732267719	0
0	3569	38.691613695352	1
0	3570	38.69919815044	0
0	3576	38.78864611031	1
0	3578	38.794440708454	2
0	3579	38.796228179874	1
0	3582	38.803810063098	0
0	3586	38.816766545648	1
0	3587	38.824347924157	0
0	3592	38.905574589311	1
0	3593	38.913153786203	0
0	3597	38.915570735686	1
0	3598	38.923149687096	0
0	3605	39.050718935043	1
0	3606	39.058294569089	0
0	3611	39.099497159965	1
0	3612	39.107071597408	0
0	3616	39.118244528613	1
0	3617	39.125818506255	0
0	3623	39.221690069267	1
0	3625	39.228473471886	2
0	3626	39.229261510793	1
0	3629	39.236832766761	0
0	3633	39.306790300641	1
0	3634	39.314359657086	0
0	3638	39.315769096097	1
0	3639	39.323338232615	0
0	3643	39.330174706537	1
0	3644	39.33774349023	0
0	3649	39.401776670977	1
0	3651	39.401834546856	2
0	3653	39.406639026821	3
0	3654	39.409343701471	2
0	3657	39.416910546731	1
0	3660	39.424477206771	0
0	3664	39.438460535185	1
0	3665	39.446026667776	0
0	3670	39.480272887743	1
0	3671	39.487837997162	0
0	3675	39.492790249785	1
0	3676	39.500355052951	0
0	3682	39.587850240168	1
0	3683	39.595412718381	0
0	3688	39.649901666985	1
0	3689	39.65746262833	0
0	3696	39.723577190225	1
0	3697	39.731136351337	0
0	3706	40.032378741013	1
0	3707	40.039930365997	0
0	3711	40.050589901498	1
0	3712	40.058141082518	0
0	3716	40.100295823749	1
0	3717	40.107845793271	0
0	3721	40.111127283926	1
0	3723	40.1186769895	0
0	3728	40.122094072071	1
0	3729	40.129635518289	0
0	3738	40.202752085356	1
0	3739	40.210285614331	0
0	3743	40.212513494019	1
0	3744	40.220046065959	0
0	3749	40.242957065421	1
0	3751	40.243955917845	2
0	3752	40.250486654154	1
0	3756	40.258015505416	0
0	3761	40.30526585118	1
0	3762	40.312792763022	0
0	3766	40.313112627118	1
0	3767	40.320651071834	0
0	3771	40.331344552641	1
0	3772	40.338888895835	0
0	3776	40.397501043313	1
0	3777	40.405043777057	0
0	3785	40.529618482724	1
0	3787	40.53715800438	0
0	3792	40.572944522167	1
0	3793	40.58048299106	0
0	3797	40.606463689844	1
0	3798	40.614001344469	0
0	3802	40.679079987294	1
0	3804	40.683637527031	2
0	3805	40.686615878482	1
0	3808	40.694151586714	0
0	3817	40.910794826049	1
0	3818	40.918325095717	0
0	3822	40.924589558704	1
0	3823	40.93211949397	0
0	3827	40.9787659658	1
0	3828	40.986294588044	0
0	3832	41.042287710101	1
0	3834	41.044173872631	2
0	3835	41.049814793413	1
0	3838	41.05734169441	0
0	3842	41.065904305357	1
0	3844	41.072976232019	2
0	3845	41.073430816674	1
0	3848	41.080957145717	0
0	3852	41.128220604708	1
0	3853	41.135686277686	0
0	3860	41.316815656828	1
0	3861	41.324336096421	0
0	3865	41.329985361194	1
0	3866	41.337505482368	0
0	3875	41.428717559461	1
0	3876	41.436235294333	0
0	3881	41.534262822583	1
0	3883	41.536222577971	2
0	3884	41.541778008159	1
0	3888	41.549293012282	0
0	3892	41.601639840294	1
0	3894	41.602002126674	2
0	3895	41.609153399378	1
0	3898	41.616666777127	0
0	3902	41.629276228571	1
0	3904	41.635582243447	2
0	3905	41.636789120711	1
0	3908	41.644301831565	0
0	3913	41.726914303831	1
0	3914	41.73442484064	0
0	3918	41.739639173293	1
0	3919	41.747149403247	0
0	3923	41.748501930566	1
0	3925	41.756011946814	0
0	3930	41.784956988812	1
0	3931	41.792466126151	0
0	3935	41.803812306039	1
0	3936	41.81132098887	0
0	3941	41.877088908442	1
0	3942	41.884595825456	0
0	3946	41.943346650735	1
0	3947	41.950851971788	0
0	3954	42.077170081009	1
0	3955	42.084672180704	0
0	3959	42.090654086305	1
0	3960	42.09815586157	0
0	3965	42.137228182382	1
0	3966	42.144728837275	0
0	3970	42.151234033808	1
0	3971	42.158734351846	0
0	3975	42.290636889154	1
0	3976	42.298133856058	0
0	3980	42.308841560028	1
0	3981	42.316338089527	0
0	3985	42.366976115214	1
0	3986	42.374471248253	0
0	3993	42.412784812342	1
0	3994	42.420278845368	0
0	3999	42.524534149284	1
0	4001	42.532025500207	0
0	4005	42.560526064477	1
0	4006	42.568016551964	0
0	4013	42.664805169009	1
0	4014	42.672321344011	0
0	4022	42.942153123374	1
0	4023	42.94983981719	0
0	4032	43.128131289676	1
0	4033	43.135769852666	0
0	4039	43.208149422157	1
0	4040	43.21580862905	0
0	4048	43.345970663326	1
0	4049	43.353568382432	0
0	4053	43.396282746203	1
0	4054	43.403858264257	0
0	4059	43.522667332973	1
0	4061	43.526405232028	2
0	4062	43.53018764986	1
0	4065	43.537704707435	0
0	4069	43.588171237341	1
0	4070	43.595663259335	0
0	4074	43.595886095161	1
0	4076	43.603374798675	0
0	4080	43.7193701949	1
0	4081	43.727327219655	0
0	4085	43.804132995012	1
0	4086	43.812402787695	0
0	4091	43.860363988174	1
0	4092	43.868674908171	0
0	4096	43.874111853751	1
0	4098	43.878459477229	2
0	4099	43.882432891237	1
0	4102	43.890760064413	0
0	4107	43.972444083787	1
0	4108	43.980838211585	0
0	4112	44.005570497564	1
0	4113	44.013989538215	0
0	4120	44.324282911895	1
0	4121	44.332333852266	0
0	4125	44.334330360145	1
0	4126	44.34230844476	0
0	4130	44.360056812053	1
0	4132	44.365199500022	2
0	4133	44.367854224247	1
0	4136	44.375598481505	0
0	4142	44.447808515464	1
0	4143	44.456526786613	0
0	4151	44.600400773141	1
0	4152	44.608663656524	0
0	4156	44.62628574722	1
0	4157	44.634506963133	0
0	4163	44.663382808675	1
0	4164	44.671545036274	0
0	4170	44.985444082575	1
0	4171	44.993127686793	0
0	4175	45.013448904716	1
0	4176	45.021093529485	0
0	4180	45.026489999985	1
0	4181	45.034116607717	0
0	4185	45.043750053096	1
0	4186	45.051352945229	0
0	4192	45.105480629068	1
0	4193	45.113312687391	0
0	4197	45.168945911118	1
0	4199	45.176330182739	2
0	4200	45.177150346117	1
0	4203	45.18540552051	0
0	4208	45.25256743211	1
0	4209	45.261057273418	0
0	4213	45.28394363984	1
0	4215	45.286202468665	2
0	4216	45.292450533037	1
0	4219	45.300962061247	0
0	4224	45.413237003316	1
0	4226	45.421382438408	0
0	4233	45.570657311575	1
0	4234	45.578313278175	0
0	4239	45.629126589896	1
0	4240	45.636615412428	0
0	4246	45.670326193022	1
0	4247	45.679048829733	0
0	4252	45.699919854347	1
0	4254	45.708659467245	0
0	4260	45.733285458337	1
0	4261	45.742044290592	0
0	4266	45.794175530962	1
0	4267	45.802969656074	0
0	4271	45.843851632104	1
0	4272	45.852674761642	0
0	4276	45.918989508918	1
0	4277	45.927856874642	0
0	4281	45.986881459189	1
0	4282	45.995789178384	0
0	4288	46.095188041736	1
0	4289	46.104160901829	0
0	4294	46.167507453649	1
0	4295	46.176501570878	0
0	4299	46.225328923092	1
0	4300	46.234318035628	0
0	4304	46.237177139112	1
0	4308	46.24477139933	2
0	4309	46.246165226823	1
0	4312	46.255152537254	0
0	4316	46.28345459211	1
0	4317	46.292027112573	0
0	4322	46.351083526728	1
0	4324	46.359217697242	0
0	4328	46.362634559572	1
0	4329	46.370767412333	0
0	4334	46.399924054471	1
0	4336	46.408052656124	0