version 3
run monitoring-exponential-6-20230106-17:25:38-1867
attr configname monitoring-exponential
attr datetime 20230106-17:25:38
attr datetimef 20230106-172538
attr experiment monitoring-exponential
attr inifile omnetpp.ini
attr iterationvars ""
attr iterationvarsd ""
attr iterationvarsf ""
attr measurement ""
attr network AerocomSys
attr processid 1867
attr repetition 6
attr replication #6
attr resultdir results
attr runnumber 6
attr seedset 6
config description "aircraft in monitoring mode, new capacity selected with exponential distrbution"
config **.X 0.1
config **.exponentialMean 1
config **.generationMode 1
config **.operationMode 0
config network AerocomSys
config repeat 10
config seed-set 6
config num-rngs 3
config **.size 100
config **.minCapacity 6000
config **.maxCapacity 15000
config sim-time-limit 300s
config warmup-period 10s
config rng-class omnetpp::cMersenneTwister
config **.nDL 15
config **.nAC 1
config **.kMean 0.05+6*0.001
config **.PacketGenerator.rng-0 0
config **.LinkSelector.rng-1 1
config **.DataLink[*].rng-2 2

vector 0 AerocomSys.airCraft[0].linkSelector queueLengthStatistic:vector ETV
attr recordingmode vector
attr source queueLength
attr title "queue length statistic"
vector 1 AerocomSys.airCraft[0].linkSelector serviceTimeStatistic:vector ETV
attr recordingmode vector
attr source serviceTime
attr title "service time statistic"
vector 2 AerocomSys.airCraft[0].linkSelector waitingTimeStatistic:vector ETV
attr recordingmode vector
attr source waitingTime
attr title "waiting time statistic"
vector 3 AerocomSys.controlTower responseTimeStatistic:vector ETV
attr recordingmode vector
attr source responseTime
attr title "response time statistic"
0	1001	10.058354723409	1
0	1002	10.066051823233	0
0	1006	10.095467273264	1
0	1007	10.103089567985	0
0	1011	10.122140357801	1
0	1012	10.1297097813	0
0	1016	10.141544529438	1
0	1018	10.149075948674	0
0	1022	10.177163512565	1
0	1023	10.18469779388	0
0	1027	10.21504220198	1
0	1029	10.219656857167	2
0	1030	10.222599551942	1
0	1033	10.230161521349	0
0	1038	10.270802525433	1
0	1039	10.278394092406	0
0	1043	10.28012912302	1
0	1044	10.287726443477	0
0	1050	10.418384236485	1
0	1051	10.42606787957	0
0	1055	10.444900486461	1
0	1056	10.452600910233	0
0	1060	10.455388066517	1
0	1061	10.463095147552	0
0	1065	10.479620001476	1
0	1067	10.487342508469	0
0	1071	10.509291832623	1
0	1073	10.512017381798	2
0	1074	10.517033312899	1
0	1077	10.524779758713	0
0	1082	10.659158443506	1
0	1083	10.666997196647	0
0	1087	10.674330161389	1
0	1088	10.682178898364	0
0	1092	10.694716685698	1
0	1093	10.702578878254	0
0	1097	10.706964422064	1
0	1098	10.714834720619	0
0	1102	10.742133157975	1
0	1103	10.750026825665	0
0	1108	10.769488853549	1
0	1109	10.777400794896	0
0	1113	10.8082962661	1
0	1115	10.816234276499	0
0	1120	10.908788714654	1
0	1121	10.916795036575	0
0	1126	10.994114332266	1
0	1127	11.002179585528	0
0	1131	11.077633638345	1
0	1133	11.078212654017	2
0	1134	11.08570556352	1
0	1137	11.093777642855	0
0	1141	11.169339610442	1
0	1142	11.177413287393	0
0	1146	11.217179428444	1
0	1147	11.225254019537	0
0	1151	11.229082413733	1
0	1152	11.237157232305	0
0	1156	11.314708198609	1
0	1157	11.322784653962	0
0	1163	11.374912354659	1
0	1164	11.382989961243	0
0	1170	11.532065781878	1
0	1171	11.540146395115	0
0	1175	11.575122701857	1
0	1177	11.583035331559	0
0	1181	11.648809205615	1
0	1184	11.656653246672	0
0	1188	11.685002796249	1
0	1189	11.692821145998	0
0	1196	11.87218347579	1
0	1197	11.879959645277	0
0	1201	11.930557544439	1
0	1202	11.938303211084	0
0	1207	11.945721900767	1
0	1208	11.953478357045	0
0	1212	11.983239362158	1
0	1213	11.991015220565	0
0	1217	11.99401842116	1
0	1218	12.001794249375	0
0	1225	12.037424363122	1
0	1226	12.045200069759	0
0	1231	12.12962662688	1
0	1232	12.137402075277	0
0	1236	12.27044984124	1
0	1237	12.278224895253	0
0	1241	12.279886499361	1
0	1242	12.287661526947	0
0	1246	12.313933980035	1
0	1247	12.321708912275	0
0	1251	12.403635759989	1
0	1252	12.411410441042	0
0	1257	12.460343781416	1
0	1258	12.468118303681	0
0	1263	12.649170499607	1
0	1264	12.656944493186	0
0	1269	12.700955119783	1
0	1270	12.708728968385	0
0	1274	12.717700415239	1
0	1275	12.725474216962	0
0	1279	12.734287008462	1
0	1281	12.742060763751	0
0	1285	12.758427234395	1
0	1286	12.766200922104	0
0	1290	12.838154432549	1
0	1291	12.845927897073	0
0	1295	12.868629855697	1
0	1296	12.876403234913	0
0	1300	12.912247715963	1
0	1301	12.920020973085	0
0	1306	12.974176672949	1
0	1307	12.981949756728	0
0	1311	12.993470060395	1
0	1312	13.001243090172	0
0	1316	13.011757013888	1
0	1317	13.019529992481	0
0	1323	13.124771028163	1
0	1324	13.13255834588	0
0	1328	13.168001650724	1
0	1330	13.168657831707	2
0	1332	13.173711740694	3
0	1333	13.175802402507	2
0	1336	13.183605583339	1
0	1339	13.19141119549	0
0	1343	13.193143179195	1
0	1344	13.200951765133	0
0	1351	13.302943929259	1
0	1354	13.310786914587	0
0	1361	13.554903983858	1
0	1362	13.562827062954	0
0	1366	13.567413628166	1
0	1367	13.57534072651	0
0	1371	13.604602206996	1
0	1373	13.612541277848	0
0	1377	13.654834440278	1
0	1379	13.662789740452	0
0	1385	13.703953103874	1
0	1386	13.711924337883	0
0	1392	13.834082396111	1
0	1394	13.835108934843	2
0	1395	13.842028881246	1
0	1398	13.849973717496	0
0	1402	13.861102732829	1
0	1403	13.869043614073	0
0	1408	13.985018161699	1
0	1409	13.992913448018	0
0	1414	14.136423253682	1
0	1416	14.143665956965	2
0	1417	14.144248221794	1
0	1420	14.152069589721	0
0	1426	14.231579335061	1
0	1427	14.239360746534	0
0	1431	14.288194209555	1
0	1432	14.295949935516	0
0	1436	14.30474238605	1
0	1437	14.31249063629	0
0	1443	14.426425521681	1
0	1444	14.434119240453	0
0	1448	14.503458863111	1
0	1449	14.51111845493	0
0	1453	14.512607770464	1
0	1454	14.52026332928	0
0	1458	14.543193249388	1
0	1459	14.55083535635	0
0	1464	14.571309495828	1
0	1465	14.57895846996	0
0	1470	14.651663634882	1
0	1471	14.65939246269	0
0	1475	14.696246084608	1
0	1476	14.704017575307	0
0	1480	14.776947144751	1
0	1481	14.784702649121	0
0	1486	14.812762192969	1
0	1487	14.820510623675	0
0	1491	14.821249866327	1
0	1492	14.828996622563	0
0	1497	14.898071985358	1
0	1498	14.905803618783	0
0	1502	14.962586658206	1
0	1503	14.970305637139	0
0	1507	15.010835363907	1
0	1509	15.013312388993	2
0	1510	15.018544905943	1
0	1513	15.026252942218	0
0	1518	15.056693048749	1
0	1519	15.064393642907	0
0	1524	15.094832452861	1
0	1525	15.102525620959	0
0	1529	15.124877251158	1
0	1530	15.13256457936	0
0	1534	15.136012434268	1
0	1535	15.143697600344	0
0	1539	15.153139228641	1
0	1541	15.155671901535	2
0	1543	15.157985122379	3
0	1544	15.160821071567	2
0	1547	15.168501424902	1
0	1550	15.176180289512	0
0	1554	15.188915530968	1
0	1555	15.196590441404	0
0	1559	15.283709674687	1
0	1560	15.291366276907	0
0	1568	15.377489100657	1
0	1569	15.385127676388	0
0	1573	15.437800532695	1
0	1574	15.44542756001	0
0	1578	15.458389312268	1
0	1579	15.46601240524	0
0	1583	15.473968683507	1
0	1584	15.481588802088	0
0	1588	15.488997202773	1
0	1589	15.49661445433	0
0	1594	15.550161271867	1
0	1596	15.552175142132	2
0	1597	15.557766877242	1
0	1600	15.565371036932	0
0	1606	15.634205329952	1
0	1607	15.642014609551	0
0	1611	15.650172801525	1
0	1612	15.658068197797	0
0	1616	15.69242768406	1
0	1617	15.700560410633	0
0	1621	15.777319379403	1
0	1622	15.785752457709	0
0	1626	15.882050397656	1
0	1627	15.890501617953	0
0	1634	15.950449226794	1
0	1635	15.958912337648	0
0	1639	15.972576777393	1
0	1640	15.9810437421	0
0	1644	16.021758045482	1
0	1645	16.030080658876	0
0	1649	16.030776246222	1
0	1650	16.039065717507	0
0	1657	16.265053302135	1
0	1659	16.273571537925	0
0	1665	16.350748813258	1
0	1666	16.359205123136	0
0	1671	16.404069000066	1
0	1672	16.412457494171	0
0	1676	16.523618127394	1
0	1677	16.531858455323	0
0	1683	16.702121750142	1
0	1684	16.710150337143	0
0	1690	16.79796120597	1
0	1691	16.805879147228	0
0	1697	16.835343379434	1
0	1698	16.84316187942	0
0	1703	16.874080940064	1
0	1704	16.881915591111	0
0	1713	17.044203383263	1
0	1714	17.052140071893	0
0	1718	17.075919668601	1
0	1719	17.083893019205	0
0	1725	17.153475929924	1
0	1726	17.161540373624	0
0	1730	17.175721656322	1
0	1731	17.183812613961	0
0	1735	17.210342688872	1
0	1736	17.218475258749	0
0	1740	17.252708037719	1
0	1741	17.260892114042	0
0	1745	17.281021647184	1
0	1746	17.289240511554	0
0	1754	17.475905621787	1
0	1755	17.48336389171	0
0	1759	17.523449634125	1
0	1760	17.530918622254	0
0	1765	17.672550968487	1
0	1766	17.680053770356	0
0	1773	17.791609313505	1
0	1774	17.799139336498	0
0	1779	17.907222472851	1
0	1780	17.914779118972	0
0	1784	17.924236839764	1
0	1785	17.931797419814	0
0	1789	17.947472806526	1
0	1790	17.955038765634	0
0	1794	18.011870932507	1
0	1795	18.019451839675	0
0	1800	18.105828268806	1
0	1801	18.113431091564	0
0	1805	18.147942873895	1
0	1806	18.155555561084	0
0	1810	18.174711222976	1
0	1811	18.182330193385	0
0	1815	18.18281079425	1
0	1817	18.183244433982	2
0	1818	18.190431667881	1
0	1821	18.198054333119	0
0	1826	18.313252307828	1
0	1828	18.320020901365	2
0	1829	18.320903963858	1
0	1832	18.328557433297	0
0	1838	18.405119737123	1
0	1839	18.412793222266	0
0	1843	18.471035668855	1
0	1844	18.478724893538	0
0	1848	18.502711678931	1
0	1849	18.510408490268	0
0	1853	18.578387648146	1
0	1854	18.586102645225	0
0	1858	18.617795732987	1
0	1859	18.625520234319	0
0	1863	18.645708654087	1
0	1864	18.653439901503	0
0	1869	18.713480733219	1
0	1870	18.721228409148	0
0	1874	18.733016133982	1
0	1875	18.740768558425	0
0	1880	18.769127148836	1
0	1881	18.776888366207	0
0	1887	18.826845289099	1
0	1888	18.834620602165	0
0	1892	18.849626923189	1
0	1893	18.857407813998	0
0	1899	18.980430160754	1
0	1900	18.988243232305	0
0	1904	19.022775757223	1
0	1905	19.030599303922	0
0	1910	19.104140469025	1
0	1912	19.108884180316	2
0	1913	19.111984222178	1
0	1916	19.119829928799	0
0	1922	19.410050711834	1
0	1924	19.417721857939	0
0	1928	19.483697225933	1
0	1929	19.491231025192	0
0	1937	19.710055689352	1
0	1938	19.717979275971	0
0	1944	19.82886270133	1
0	1945	19.836713573389	0
0	1951	19.945353883184	1
0	1954	19.950275565064	2
0	1955	19.953057802363	1
0	1958	19.960752196798	0
0	1965	20.113247888691	1
0	1966	20.120826891423	0
0	1971	20.14474699522	1
0	1972	20.152322013941	0
0	1977	20.213296417472	1
0	1978	20.220862780513	0
0	1982	20.256665443065	1
0	1983	20.264226340143	0
0	1988	20.364201319952	1
0	1990	20.371748697882	0
0	1998	20.520023965459	1
0	1999	20.527551839307	0
0	2004	20.542826961495	1
0	2005	20.550351989579	0
0	2009	20.594729688394	1
0	2010	20.602248247146	0
0	2014	20.635386494194	1
0	2016	20.640187688903	2
0	2017	20.642899993108	1
0	2020	20.650412557695	0
0	2024	20.667081590846	1
0	2025	20.67459114995	0
0	2030	20.793319795409	1
0	2033	20.800813703584	0
0	2037	20.907859506851	1
0	2038	20.915339270811	0
0	2042	20.917807005894	1
0	2043	20.925285543982	0
0	2047	20.936428164395	1
0	2048	20.9439044088	0
0	2052	20.955333724821	1
0	2053	20.96280764195	0
0	2065	21.340183132658	1
0	2066	21.347984027732	0
0	2070	21.374385035218	1
0	2071	21.382184697684	0
0	2076	21.437376336515	1
0	2077	21.445173729848	0
0	2082	21.51482238857	1
0	2083	21.522616993876	0
0	2088	21.670509100119	1
0	2089	21.678298106793	0
0	2093	21.679154269107	1
0	2095	21.686942965128	0
0	2099	21.746639228915	1
0	2100	21.754425500809	0
0	2104	21.771145814222	1
0	2105	21.778931206188	0
0	2110	21.817509608283	1
0	2112	21.825293336065	0
0	2117	21.846725876405	1
0	2118	21.854508555863	0
0	2122	21.900776306945	1
0	2123	21.908557047735	0
0	2128	21.976069325958	1
0	2130	21.978410806789	2
0	2132	21.983847367765	1
0	2135	21.991625130864	0
0	2139	22.045458399887	1
0	2140	22.053233956004	0
0	2145	22.134920609139	1
0	2147	22.140043108001	2
0	2148	22.142692962839	1
0	2151	22.150465038442	0
0	2156	22.18320638645	1
0	2158	22.187653403133	2
0	2160	22.190965661362	1
0	2163	22.198725486822	0
0	2167	22.208932828306	1
0	2169	22.21664288504	2
0	2170	22.216693928899	1
0	2173	22.224455580428	0
0	2177	22.270271533782	1
0	2178	22.278036990753	0
0	2182	22.340967236184	1
0	2183	22.348732224201	0
0	2190	22.665485580745	1
0	2191	22.67323899626	0
0	2195	22.71080943506	1
0	2196	22.718561237046	0
0	2200	22.738085067994	1
0	2201	22.745835899291	0
0	2205	22.804016600802	1
0	2206	22.811765086723	0
0	2210	22.837127809923	1
0	2212	22.83733190688	2
0	2213	22.844875118518	1
0	2217	22.844926788827	2
0	2218	22.852622151695	1
0	2221	22.860368909484	0
0	2225	22.89629910841	1
0	2226	22.904044313957	0
0	2230	22.923350926287	1
0	2231	22.931095170747	0
0	2236	22.954612584191	1
0	2237	22.962355718296	0
0	2241	23.09229096294	1
0	2243	23.093008580439	2
0	2244	23.100029210754	1
0	2247	23.107767184116	0
0	2251	23.114711007873	1
0	2252	23.122448460569	0
0	2256	23.147127780197	1
0	2257	23.154864083535	0
0	2261	23.184450125224	1
0	2262	23.192185105696	0
0	2266	23.202487366382	1
0	2267	23.210221707698	0
0	2271	23.214195661685	1
0	2272	23.22192958817	0
0	2278	23.254602993957	1
0	2279	23.262335489131	0
0	2283	23.273557322531	1
0	2284	23.281289146486	0
0	2291	23.429445447852	1
0	2292	23.437171755846	0
0	2296	23.46214515882	1
0	2297	23.469870310763	0
0	2302	23.499864350001	1
0	2303	23.507588168866	0
0	2311	23.665799067669	1
0	2312	23.673517027499	0
0	2317	23.701835522904	1
0	2320	23.707342669911	2
0	2321	23.709394431671	1
0	2325	23.716938316086	0
0	2329	23.721874496015	1
0	2330	23.729480006025	0
0	2334	23.73594196999	1
0	2335	23.743618162394	0
0	2341	23.778035806128	1
0	2343	23.785841773491	0
0	2347	23.82535376843	1
0	2348	23.833127154368	0
0	2353	23.929530327203	1
0	2354	23.937204017742	0
0	2361	24.128920448497	1
0	2362	24.136410285957	0
0	2367	24.168124214321	1
0	2369	24.175005931404	2
0	2370	24.1755789344	1
0	2373	24.183027014028	0
0	2378	24.250985178557	1
0	2379	24.258568793696	0
0	2384	24.319703694845	1
0	2386	24.326824727888	2
0	2387	24.327617894968	1
0	2390	24.335572028184	0
0	2394	24.406231060069	1
0	2396	24.407528686092	2
0	2397	24.414501218469	1
0	2400	24.422792406215	0
0	2405	24.447455218429	1
0	2406	24.455831274541	0
0	2410	24.487726034566	1
0	2411	24.496208191236	0
0	2416	24.562893060704	1
0	2417	24.571402453254	0
0	2421	24.578611366122	1
0	2423	24.587089572522	0
0	2433	24.727189215107	1
0	2434	24.735383547818	0
0	2444	24.882699593218	1
0	2445	24.89061647843	0
0	2449	24.8967167524	1
0	2450	24.90460954972	0
0	2455	24.983345701476	1
0	2456	24.991481037204	0
0	2460	25.038756552148	1
0	2461	25.046924363381	0
0	2465	25.051435069696	1
0	2466	25.059610348109	0
0	2472	25.118859240067	1
0	2473	25.127074459325	0
0	2478	25.206854270457	1
0	2479	25.215122207161	0
0	2483	25.236563454695	1
0	2484	25.244849343153	0
0	2488	25.247561938843	1
0	2489	25.255854492915	0
0	2493	25.435643307182	1
0	2495	25.439321012794	2
0	2496	25.44370894953	1
0	2500	25.446618027866	2
0	2501	25.451747798157	1
0	2504	25.459760118616	0
0	2508	25.48172119337	1
0	2510	25.484448520762	2
0	2511	25.489636126433	1
0	2514	25.497525736721	0
0	2518	25.504616383069	1
0	2519	25.512458506902	0
0	2524	25.54154507874	1
0	2526	25.548348240315	2
0	2528	25.549532728406	1
0	2531	25.557547816151	0
0	2536	25.562782902234	1
0	2537	25.570836646018	0
0	2541	25.579011738337	1
0	2542	25.587113339147	0
0	2550	25.773200688443	1
0	2551	25.781363616922	0
0	2555	25.781536272813	1
0	2556	25.789692436252	0
0	2561	25.932812044324	1
0	2562	25.94084735396	0
0	2568	25.942615975393	1
0	2570	25.943860440995	2
0	2571	25.950643576154	1
0	2574	25.958664875781	0
0	2578	25.980833481943	1
0	2580	25.982646810261	2
0	2581	25.988831172792	1
0	2585	25.990666431202	2
0	2586	25.996822632641	1
0	2589	26.004807876035	0
0	2593	26.013474425882	1
0	2594	26.021446747079	0
0	2598	26.036535250546	1
0	2599	26.044489744893	0
0	2603	26.110095032679	1
0	2605	26.117993191638	0
0	2613	26.290810749978	1
0	2615	26.294640049478	2
0	2616	26.298898810687	1
0	2620	26.304349961882	2
0	2621	26.306996697693	1
0	2625	26.315104446883	0
0	2629	26.325719102427	1
0	2630	26.333849745328	0
0	2634	26.42833853922	1
0	2635	26.436596997425	0
0	2639	26.440360980252	1
0	2640	26.448634676197	0
0	2644	26.480669449942	1
0	2645	26.488994647375	0
0	2649	26.500161094537	1
0	2650	26.508511426812	0
0	2657	26.626365814071	1
0	2658	26.634882635624	0
0	2662	26.667658449224	1
0	2663	26.676231194936	0
0	2667	26.681584720386	1
0	2669	26.690176492949	0
0	2673	26.714539070591	1
0	2674	26.723153946804	0
0	2680	26.754220734647	1
0	2682	26.754987242972	2
0	2683	26.762757218369	1
0	2687	26.77127702408	0
0	2691	26.787712080509	1
0	2692	26.79618350267	0
0	2696	26.839033732877	1
0	2697	26.847407357711	0
0	2701	26.894397305111	1
0	2702	26.902667931061	0
0	2706	26.919815451343	1
0	2708	26.92021735415	2
0	2711	26.921292191538	3
0	2712	26.928039633093	2
0	2716	26.928338986269	3
0	2718	26.928877841936	4
0	2719	26.936248899053	3
0	2722	26.944443330135	2
0	2725	26.952623006521	1
0	2728	26.960788007673	0
0	2733	26.97654761068	1
0	2734	26.984669989151	0
0	2738	26.985125908885	1
0	2740	26.993233112939	0
0	2750	27.234170233786	1
0	2751	27.241860341198	0
0	2757	27.352213603354	1
0	2758	27.359790609223	0
0	2762	27.359956007237	1
0	2763	27.367549270004	0
0	2767	27.432132821877	1
0	2769	27.436981892558	2
0	2770	27.439881060822	1
0	2773	27.447646313413	0
0	2778	27.47771014082	1
0	2779	27.48551661389	0
0	2783	27.49673584272	1
0	2784	27.504543387623	0
0	2789	27.663618127478	1
0	2790	27.671435086505	0
0	2795	27.744644186924	1
0	2796	27.752465724966	0
0	2800	27.758846514572	1
0	2801	27.766668855781	0
0	2805	27.772558730233	1
0	2806	27.780381847048	0
0	2810	27.821137005836	1
0	2811	27.828962871632	0
0	2816	27.85677998658	1
0	2818	27.861227076173	2
0	2819	27.864607870594	1
0	2823	27.86599640632	2
0	2824	27.872436197987	1
0	2827	27.880264968834	0
0	2835	27.95216030516	1
0	2836	27.959993595033	0
0	2842	28.010015979339	1
0	2843	28.017862303282	0
0	2847	28.048116589673	1
0	2848	28.056242222809	0
0	2852	28.067848770687	1
0	2853	28.076127020031	0
0	2857	28.111576805353	1
0	2858	28.120214580625	0
0	2862	28.14989119151	1
0	2863	28.158589856001	0
0	2867	28.223207699142	1
0	2868	28.231991037978	0
0	2873	28.287628404962	1
0	2875	28.28876794029	2
0	2876	28.296231752397	1
0	2879	28.304767990248	0
0	2884	28.327558751023	1
0	2887	28.335859228143	0
0	2892	28.503301861311	1
0	2893	28.511557179396	0
0	2897	28.52881365304	1
0	2898	28.536998053988	0
0	2902	28.590328708829	1
0	2903	28.598347020806	0
0	2907	28.613934229647	1
0	2909	28.619173700931	2
0	2910	28.621890583232	1
0	2914	28.626751804884	2
0	2915	28.629826268643	1
0	2918	28.637741446253	0
0	2922	28.689505472412	1
0	2924	28.697269755126	0
0	2928	28.710026184067	1
0	2929	28.717787147315	0
0	2933	28.790568165711	1
0	2934	28.798334510841	0
0	2938	28.847619278728	1
0	2939	28.855389440579	0
0	2944	28.92005633074	1
0	2945	28.92783134404	0
0	2949	28.928534670373	1
0	2950	28.936310251904	0
0	2954	28.940943201752	1
0	2955	28.94871961507	0
0	2961	28.970557518194	1
0	2962	28.978335917382	0
0	2967	29.034354985791	1
0	2968	29.042137666542	0
0	2973	29.054982638975	1
0	2975	29.062766705094	0
0	2980	29.193756747634	1
0	2981	29.201550146757	0
0	2987	29.277806443074	1
0	2988	29.285600041357	0
0	2993	29.379243642125	1
0	2994	29.38704955084	0
0	3000	29.477299713	1
0	3001	29.485112251045	0
0	3005	29.523917109207	1
0	3006	29.531732802891	0
0	3010	29.608027159094	1
0	3011	29.615848552834	0
0	3015	29.629260265541	1
0	3016	29.637083099542	0
0	3020	29.642395353031	1
0	3021	29.650219078263	0
0	3025	29.664391576524	1
0	3026	29.67221679468	0
0	3030	29.681867213875	1
0	3031	29.689693618541	0
0	3036	29.751254643886	1
0	3037	29.75908576317	0
0	3042	29.772525819732	1
0	3043	29.780358385451	0
0	3047	29.870670001849	1
0	3048	29.878509248275	0
0	3052	29.91681349829	1
0	3053	29.92465588966	0
0	3057	29.925990412397	1
0	3058	29.933833429527	0
0	3062	30.144030598212	1
0	3063	30.151888512607	0
0	3067	30.162586169011	1
0	3069	30.168373206233	2
0	3070	30.170445353801	1
0	3073	30.178305076788	0
0	3079	30.229736238304	1
0	3081	30.237600023913	0
0	3087	30.300077272783	1
0	3089	30.307945883622	0
0	3093	30.325164350432	1
0	3094	30.333039197776	0
0	3099	30.427699574226	1
0	3100	30.435605779357	0
0	3104	30.44695877657	1
0	3105	30.454870899518	0
0	3109	30.478316931479	1
0	3110	30.486238708893	0
0	3115	30.594909595615	1
0	3117	30.59946115997	2
0	3118	30.602867476871	1
0	3121	30.610827834349	0
0	3128	30.641341565583	1
0	3129	30.649313916658	0
0	3139	30.950119173217	1
0	3140	30.9577093887	0
0	3144	31.015580547134	1
0	3145	31.023267714827	0
0	3150	31.064962580487	1
0	3151	31.072724540822	0
0	3157	31.168491753169	1
0	3158	31.176343666298	0
0	3162	31.203740937262	1
0	3163	31.21160145565	0
0	3167	31.219575878199	1
0	3168	31.227440268459	0
0	3172	31.237477148331	1
0	3173	31.245345920306	0
0	3177	31.248540964451	1
0	3178	31.256412446971	0
0	3182	31.308948568897	1
0	3183	31.316684276388	0
0	3187	31.324885546771	1
0	3189	31.330245079992	2
0	3190	31.332580167461	1
0	3193	31.340255106639	0
0	3197	31.355744425844	1
0	3198	31.363360717989	0
0	3203	31.377226963589	1
0	3204	31.384789661872	0
0	3210	31.505564509091	1
0	3211	31.513022286606	0
0	3215	31.56651007404	1
0	3216	31.573993943584	0
0	3220	31.60536479038	1
0	3221	31.612865389928	0
0	3225	31.618466208207	1
0	3227	31.625972465819	0
0	3233	31.780674822279	1
0	3234	31.788251846135	0
0	3238	31.804662712915	1
0	3239	31.812250315302	0
0	3243	31.855207434962	1
0	3244	31.862817424279	0
0	3249	31.963579836132	1
0	3250	31.971122203707	0
0	3254	31.977332498614	1
0	3256	31.984886126006	0
0	3260	32.051533338142	1
0	3261	32.059148301254	0
0	3265	32.077360947898	1
0	3266	32.084997494931	0
0	3270	32.085000622644	1
0	3271	32.092643577559	0
0	3275	32.153274969148	1
0	3276	32.160975671201	0
0	3280	32.181746825349	1
0	3282	32.188083929388	2
0	3283	32.189471867833	1
0	3287	32.18950903563	2
0	3288	32.197203540974	1
0	3291	32.20494186187	0
0	3295	32.233238879867	1
0	3296	32.241008335645	0
0	3300	32.258075181518	1
0	3301	32.265866242353	0
0	3305	32.316024372949	1
0	3307	32.320558411994	2
0	3308	32.323844725045	1
0	3311	32.331668747536	0
0	3318	32.459593869958	1
0	3319	32.467482158273	0
0	3324	32.606458190697	1
0	3325	32.614417206552	0
0	3329	32.618578181685	1
0	3331	32.626543091031	0
0	3335	32.666689886094	1
0	3336	32.674678276678	0
0	3341	32.72850215666	1
0	3342	32.736520919108	0
0	3347	32.799253039923	1
0	3348	32.807306850978	0
0	3353	32.870619289168	1
0	3354	32.878700649602	0
0	3358	32.892954441454	1
0	3359	32.901028618097	0
0	3363	32.912519844543	1
0	3365	32.917271557221	2
0	3366	32.920587738732	1
0	3369	32.928653045165	0
0	3373	32.929387884679	1
0	3374	32.93745037038	0
0	3378	32.947371545719	1
0	3379	32.955428273206	0
0	3383	32.987819418769	1
0	3385	32.995818495886	0
0	3389	33.015829920903	1
0	3390	33.02386480365	0
0	3394	33.06404653217	1
0	3395	33.07206610019	0
0	3399	33.108549584868	1
0	3400	33.116555069392	0
0	3405	33.16084607684	1
0	3407	33.163163491515	2
0	3408	33.16856255992	1
0	3411	33.176213296805	0
0	3416	33.21925678943	1
0	3417	33.226961613355	0
0	3422	33.299508439978	1
0	3423	33.307432088379	0
0	3431	33.403492757921	1
0	3433	33.410921427073	0
0	3438	33.426599951758	1
0	3440	33.434289355015	0
0	3444	33.438051283867	1
0	3445	33.44588844345	0
0	3449	33.472112527803	1
0	3450	33.480005350055	0
0	3455	33.518032613217	1
0	3456	33.525917274744	0
0	3461	33.557840304486	1
0	3463	33.560138285993	2
0	3464	33.565717905201	1
0	3468	33.57359411014	0
0	3473	33.584820030193	1
0	3474	33.592692852617	0
0	3480	33.618284445734	1
0	3481	33.626151349432	0
0	3489	33.780200966803	1
0	3490	33.788039358177	0
0	3494	33.806245891639	1
0	3495	33.814079715976	0
0	3499	33.833171056755	1
0	3500	33.841000165294	0
0	3505	33.902344056304	1
0	3506	33.910161075554	0
0	3511	33.974538351752	1
0	3512	33.982342793437	0
0	3516	34.018238982414	1
0	3517	34.026035830297	0
0	3522	34.044680580737	1
0	3523	34.052472841069	0
0	3529	34.141008753907	1
0	3530	34.148784347103	0
0	3534	34.153910396799	1
0	3535	34.161683763107	0
0	3541	34.272798600078	1
0	3542	34.280551505565	0
0	3550	34.418048061559	1
0	3552	34.425513955247	2
0	3553	34.425950668842	1
0	3556	34.433867524565	0
0	3560	34.441727823964	1
0	3561	34.449673280215	0
0	3565	34.463987910939	1
0	3566	34.471974073113	0
0	3574	34.620714330514	1
0	3575	34.628867055357	0
0	3580	34.688038206875	1
0	3581	34.696346376926	0
0	3585	34.734907559063	1
0	3586	34.743219963667	0
0	3590	34.768985817051	1
0	3591	34.77730130327	0
0	3595	34.783593413842	1
0	3597	34.79191022169	0
0	3601	34.804045742845	1
0	3602	34.812364401834	0
0	3607	34.892271239264	1
0	3608	34.900597892997	0
0	3613	34.97603966729	1
0	3614	34.984373926115	0
0	3618	35.010422265972	1
0	3619	35.018759650315	0
0	3628	35.300440141664	1
0	3629	35.308102245201	0
0	3634	35.332525753951	1
0	3637	35.33748044997	2
0	3639	35.340247931236	1
0	3642	35.347984707624	0
0	3647	35.425148893049	1
0	3648	35.433049895263	0
0	3653	35.513543464333	1
0	3654	35.521623025724	0
0	3659	35.55887220627	1
0	3660	35.56704650001	0
0	3665	35.634011097901	1
0	3667	35.641227071379	2
0	3668	35.642347414328	1
0	3672	35.648044456891	2
0	3673	35.650702103129	1
0	3676	35.659075286224	0
0	3680	35.67109485762	1
0	3681	35.679513528693	0
0	3685	35.683782215187	1
0	3686	35.692229436859	0
0	3691	35.730666555746	1
0	3692	35.739220983464	0
0	3698	35.777751293226	1
0	3700	35.784144250261	2
0	3701	35.786281850947	1
0	3704	35.794794598425	0
0	3709	35.84237366671	1
0	3710	35.850771131865	0
0	3717	35.99601714131	1
0	3718	36.004114249617	0
0	3723	36.104698762796	1
0	3725	36.11244404316	0
0	3729	36.118127892696	1
0	3730	36.125857276262	0
0	3734	36.161029967833	1
0	3735	36.168767611644	0
0	3739	36.279497845981	1
0	3741	36.28082246062	2
0	3742	36.287093681356	1
0	3745	36.294676937558	0
0	3750	36.327928346265	1
0	3751	36.335444685484	0
0	3758	36.405884606889	1
0	3759	36.413333028168	0
0	3763	36.449305525896	1
0	3764	36.456896704552	0
0	3768	36.469733123669	1
0	3769	36.477393373292	0
0	3776	36.529263978255	1
0	3777	36.537126424093	0
0	3784	36.569287545891	1
0	3785	36.57726531462	0
0	3789	36.593848270871	1
0	3790	36.601898498443	0
0	3795	36.685391312406	1
0	3796	36.693723611311	0
0	3800	36.75861128716	1
0	3801	36.767183836978	0
0	3805	36.794038236513	1
0	3806	36.80273207379	0
0	3811	36.84065188502	1
0	3813	36.849227590488	0
0	3817	36.986609752186	1
0	3818	36.994757357943	0
0	3822	37.047151998414	1
0	3823	37.055134318487	0
0	3827	37.058034652584	1
0	3828	37.065987970529	0
0	3832	37.081420575268	1
0	3833	37.089312277552	0
0	3837	37.094072137187	1
0	3838	37.101930902269	0
0	3842	37.107427826713	1
0	3843	37.115252118466	0
0	3847	37.118367274286	1
0	3848	37.126163553956	0
0	3855	37.186601656533	1
0	3857	37.188445936213	2
0	3858	37.195529640206	1
0	3861	37.204435502625	0
0	3866	37.252833234079	1
0	3867	37.261665081627	0
0	3871	37.277332637593	1
0	3872	37.286158816447	0
0	3877	37.32378316373	1
0	3878	37.332598614773	0
0	3882	37.340518694754	1
0	3883	37.349330287091	0
0	3887	37.560890744415	1
0	3888	37.569651838949	0
0	3892	37.641354956386	1
0	3893	37.650078060361	0
0	3898	37.673520934146	1
0	3900	37.674002778058	2
0	3902	37.67566760759	3
0	3904	37.682226323139	2
0	3907	37.69092693012	1
0	3910	37.699622762963	0
0	3914	37.725729070693	1
0	3915	37.734385301042	0
0	3919	37.745876211549	1
0	3920	37.754507008115	0
0	3924	37.797454272311	1
0	3925	37.806020632654	0
0	3930	37.867390544968	1
0	3932	37.87113803025	2
0	3933	37.875871055631	1
0	3936	37.884341272952	0
0	3941	37.926064387789	1
0	3942	37.934474190187	0
0	3948	37.994371898559	1
0	3949	38.002739562927	0
0	3953	38.010567698971	1
0	3954	38.018964841478	0
0	3960	38.057491659427	1
0	3961	38.065975393402	0
0	3965	38.220743148463	1
0	3966	38.229157818262	0
0	3976	38.465261192137	1
0	3977	38.473330000543	0
0	3983	38.589070616637	1
0	3984	38.596831717009	0
0	3988	38.622904776373	1
0	3989	38.631085053367	0
0	3994	38.662827073398	1
0	3995	38.670982016097	0
0	3999	38.696639240378	1
0	4000	38.704772848623	0
0	4005	38.747538543145	1
0	4007	38.749645443692	2
0	4008	38.755640245143	1
0	4011	38.763736891665	0
0	4015	38.788467693231	1
0	4017	38.790394881329	2
0	4018	38.79654391978	1
0	4021	38.804615138373	0
0	4026	38.867246234284	1
0	4027	38.875273875103	0
0	4033	38.902209656791	1
0	4035	38.910215921131	0
0	4042	38.992349532187	1
0	4043	39.000301206934	0
0	4050	39.097981040879	1
0	4052	39.105869683963	0
0	4057	39.159646130411	1
0	4058	39.167498436979	0
0	4062	39.209130488089	1
0	4063	39.216953876909	0
0	4069	39.297620410806	1
0	4071	39.305392615261	0
0	4075	39.313501767468	1
0	4076	39.321264856627	0
0	4080	39.322295448067	1
0	4081	39.330053499179	0
0	4088	39.499662349923	1
0	4089	39.507203820491	0
0	4093	39.576463770324	1
0	4094	39.584078978035	0
0	4099	39.7279921698	1
0	4100	39.735524693663	0
0	4104	39.774927675285	1
0	4105	39.782434951045	0
0	4110	39.80821445096	1
0	4111	39.815703923045	0
0	4117	39.97281681386	1
0	4118	39.98041416837	0
0	4123	40.006177877047	1
0	4124	40.013800184823	0
0	4129	40.046001889434	1
0	4130	40.053654200075	0
0	4134	40.065502642396	1
0	4135	40.073169730949	0
0	4139	40.094208162157	1
0	4141	40.094695673966	2
0	4142	40.101897108253	1
0	4145	40.109591930201	0
0	4153	40.158047499371	1
0	4155	40.16035495386	2
0	4156	40.165785504938	1
0	4159	40.173529499608	0
0	4163	40.194518159402	1
0	4164	40.202269382829	0
0	4169	40.30112474773	1
0	4171	40.302171849796	2
0	4172	40.3087430974	1
0	4175	40.316352125801	0
0	4185	40.681233758937	1
0	4186	40.689398715345	0
0	4191	40.912796623243	1
0	4192	40.920726800902	0
0	4196	40.963149757722	1
0	4197	40.970984442538	0
0	4201	40.973904514045	1
0	4203	40.981719100162	0
0	4207	41.009485851997	1
0	4208	41.017234671772	0
0	4213	41.055986756974	1
0	4214	41.063651277862	0
0	4219	41.143250664342	1
0	4220	41.150761840976	0
0	4225	41.239194126263	1
0	4226	41.247045583329	0
0	4230	41.276362121588	1
0	4231	41.284140861511	0
0	4237	41.351242046154	1
0	4239	41.358878302985	0
0	4243	41.375749555331	1
0	4244	41.383340305752	0
0	4249	41.461197792022	1
0	4251	41.46404260881	2
0	4252	41.469442448349	1
0	4255	41.477797364681	0
0	4259	41.483000518929	1
0	4260	41.491543310964	0
0	4266	41.75244723242	1
0	4267	41.760680290572	0
0	4272	41.826884497298	1
0	4273	41.834991343767	0
0	4279	42.006787936983	1
0	4280	42.014605156006	0
0	4284	42.020566124681	1
0	4285	42.02836201296	0
0	4289	42.030134286439	1