version 3
run monitoring-exponential-3-20230106-17:25:37-1832
attr configname monitoring-exponential
attr datetime 20230106-17:25:37
attr datetimef 20230106-172537
attr experiment monitoring-exponential
attr inifile omnetpp.ini
attr iterationvars ""
attr iterationvarsd ""
attr iterationvarsf ""
attr measurement ""
attr network AerocomSys
attr processid 1832
attr repetition 3
attr replication #3
attr resultdir results
attr runnumber 3
attr seedset 3
config description "aircraft in monitoring mode, new capacity selected with exponential distrbution"
config **.X 0.1
config **.exponentialMean 1
config **.generationMode 1
config **.operationMode 0
config network AerocomSys
config repeat 10
config seed-set 3
config num-rngs 3
config **.size 100
config **.minCapacity 6000
config **.maxCapacity 15000
config sim-time-limit 300s
config warmup-period 10s
config rng-class omnetpp::cMersenneTwister
config **.nDL 15
config **.nAC 1
config **.kMean 0.05+3*0.001
config **.PacketGenerator.rng-0 0
config **.LinkSelector.rng-1 1
config **.DataLink[*].rng-2 2

vector 0 AerocomSys.airCraft[0].linkSelector queueLengthStatistic:vector ETV
attr recordingmode vector
attr source queueLength
attr title "queue length statistic"
vector 1 AerocomSys.airCraft[0].linkSelector serviceTimeStatistic:vector ETV
attr recordingmode vector
attr source serviceTime
attr title "service time statistic"
vector 2 AerocomSys.airCraft[0].linkSelector waitingTimeStatistic:vector ETV
attr recordingmode vector
attr source waitingTime
attr title "waiting time statistic"
vector 3 AerocomSys.controlTower responseTimeStatistic:vector ETV
attr recordingmode vector
attr source responseTime
attr title "response time statistic"
0	1163	10.107991161626	1
0	1164	10.116865996959	0
0	1168	10.240026836483	1
0	1169	10.248879828153	0
0	1173	10.249206082906	1
0	1174	10.258057559981	0
0	1179	10.287826756068	1
0	1180	10.296671866321	0
0	1185	10.496623165469	1
0	1187	10.504220129974	2
0	1188	10.505434012536	1
0	1191	10.514243419592	0
0	1196	10.626416154163	1
0	1199	10.6327441072	2
0	1200	10.634499036097	1
0	1204	10.636530219951	2
0	1205	10.642518500258	1
0	1209	10.650541436284	0
0	1215	10.734203475024	1
0	1216	10.742266318919	0
0	1221	10.803883191193	1
0	1223	10.811976631223	0
0	1227	10.845743795234	1
0	1228	10.853855728026	0
0	1232	10.877943505912	1
0	1233	10.886069721177	0
0	1237	10.893974934847	1
0	1238	10.902108279767	0
0	1242	10.969697036588	1
0	1243	10.977864227195	0
0	1247	11.015150386988	1
0	1250	11.023338029617	0
0	1255	11.083805422712	1
0	1257	11.09202415205	0
0	1261	11.103768551895	1
0	1262	11.111964423952	0
0	1267	11.191401023298	1
0	1269	11.199346835379	0
0	1273	11.274526606346	1
0	1274	11.282200322739	0
0	1278	11.298511598988	1
0	1279	11.30611023544	0
0	1284	11.334521029657	1
0	1285	11.342024223263	0
0	1290	11.469680932243	1
0	1291	11.477291260867	0
0	1298	11.647598587897	1
0	1299	11.655354697344	0
0	1303	11.689288984475	1
0	1304	11.697080065214	0
0	1309	11.728223805866	1
0	1311	11.730479651256	2
0	1312	11.736047832417	1
0	1315	11.743878513142	0
0	1320	11.854142796885	1
0	1321	11.86207530757	0
0	1327	11.967668035444	1
0	1328	11.975700963999	0
0	1332	11.98290137621	1
0	1334	11.990947973091	0
0	1338	12.027395825436	1
0	1339	12.035482613255	0
0	1343	12.066460669768	1
0	1345	12.067218430656	2
0	1346	12.074583076519	1
0	1349	12.082712928637	0
0	1353	12.104567799965	1
0	1354	12.112725256047	0
0	1358	12.149349230553	1
0	1359	12.15754826327	0
0	1363	12.238231765374	1
0	1364	12.246454046846	0
0	1371	12.337021909255	1
0	1373	12.341050505739	2
0	1374	12.344911029073	1
0	1378	12.345258807082	2
0	1379	12.35281367361	1
0	1382	12.360729912624	0
0	1387	12.44114385323	1
0	1388	12.449215287135	0
0	1392	12.520830452878	1
0	1393	12.529047210051	0
0	1397	12.607265160386	1
0	1398	12.615645581566	0
0	1403	12.682283852428	1
0	1404	12.690811699392	0
0	1409	12.709918951499	1
0	1410	12.718502422445	0
0	1416	12.79849042007	1
0	1418	12.800458426417	2
0	1421	12.807048149511	1
0	1424	12.815595617677	0
0	1428	12.870359017382	1
0	1429	12.878831329412	0
0	1433	12.947622842561	1
0	1435	12.949447616793	2
0	1436	12.956005206611	1
0	1439	12.964377926902	0
0	1443	13.009660308844	1
0	1445	13.017971821664	0
0	1450	13.092843757068	1
0	1451	13.101062127058	0
0	1455	13.226002472557	1
0	1456	13.234076010089	0
0	1461	13.271412229402	1
0	1462	13.279437536469	0
0	1467	13.31494656264	1
0	1468	13.323130708196	0
0	1472	13.34997781531	1
0	1473	13.358358867319	0
0	1477	13.531941410687	1
0	1479	13.53853093603	2
0	1480	13.540867324815	1
0	1483	13.549795533567	0
0	1487	13.558073355471	1
0	1488	13.567005990785	0
0	1497	13.719157303099	1
0	1499	13.72813159406	0
0	1503	13.741090557301	1
0	1504	13.750070550182	0
0	1508	13.759541947426	1
0	1509	13.768526742671	0
0	1514	13.829109993197	1
0	1515	13.838112941284	0
0	1519	13.838917580149	1
0	1520	13.847923093294	0
0	1525	13.902970710435	1
0	1526	13.911306069774	0
0	1530	13.919078251963	1
0	1531	13.927435598138	0
0	1538	13.987567703183	1
0	1539	13.996019847482	0
0	1544	14.006481913647	1
0	1545	14.014960617781	0
0	1552	14.125402051177	1
0	1554	14.129290651067	2
0	1556	14.132982942352	1
0	1559	14.140593840697	0
0	1564	14.196127318068	1
0	1565	14.203997703145	0
0	1569	14.213775996844	1
0	1570	14.221722102002	0
0	1574	14.274523770777	1
0	1575	14.282737133765	0
0	1582	14.446891538348	1
0	1583	14.45566983202	0
0	1589	14.545060998369	1
0	1590	14.553787363293	0
0	1596	14.749233324617	1
0	1597	14.757853632138	0
0	1602	14.804139880527	1
0	1603	14.812723858035	0
0	1607	14.820649751504	1
0	1608	14.829216880788	0
0	1613	14.839758262989	1
0	1615	14.841524066752	2
0	1616	14.848305974536	1
0	1621	14.856845028512	0
0	1626	14.935059155933	1
0	1627	14.943511323898	0
0	1634	15.130668174929	1
0	1635	15.138930776914	0
0	1639	15.145543480198	1
0	1640	15.15379201374	0
0	1645	15.206988570552	1
0	1646	15.215179496004	0
0	1652	15.271471296116	1
0	1654	15.279602624563	0
0	1658	15.323274128509	1
0	1659	15.331358203679	0
0	1663	15.363958513111	1
0	1664	15.372005860271	0
0	1668	15.37244433403	1
0	1669	15.380484062601	0
0	1674	15.397849477412	1
0	1675	15.405881445103	0
0	1679	15.42556297651	1
0	1680	15.433595686619	0
0	1684	15.435991622801	1
0	1685	15.444024612319	0
0	1689	15.466445657528	1
0	1690	15.474479463095	0
0	1697	15.581459939898	1
0	1699	15.589496828896	0
0	1703	15.603289840033	1
0	1705	15.607722518235	2
0	1706	15.611327314539	1
0	1709	15.619365004642	0
0	1713	15.619883475485	1
0	1714	15.627921395112	0
0	1719	15.706143311728	1
0	1720	15.714183546052	0
0	1724	15.738514327522	1
0	1725	15.746555430834	0
0	1730	15.799482260103	1
0	1731	15.807525000587	0
0	1735	15.881323517867	1
0	1736	15.889156539877	0
0	1740	15.914179072423	1
0	1742	15.921837003727	0
0	1748	15.986250043317	1
0	1749	15.993994326811	0
0	1753	16.044061960064	1
0	1754	16.051919658099	0
0	1758	16.091731084558	1
0	1759	16.099684828511	0
0	1764	16.109338430917	1
0	1765	16.117328247442	0
0	1770	16.146884481009	1
0	1771	16.154849844606	0
0	1779	16.251688004661	1
0	1780	16.259604946863	0
0	1785	16.335444386756	1
0	1786	16.343337909104	0
0	1790	16.345864104709	1
0	1791	16.353754723197	0
0	1795	16.381175685622	1
0	1796	16.38905647903	0
0	1800	16.427116731836	1
0	1802	16.427257033166	2
0	1804	16.43498477919	1
0	1807	16.442850647738	0
0	1811	16.460272812237	1
0	1812	16.468131686232	0
0	1816	16.490778732119	1
0	1817	16.498629184853	0
0	1822	16.550057838889	1
0	1824	16.551252051264	2
0	1825	16.557891978931	1
0	1828	16.56572396821	0
0	1832	16.585516611163	1
0	1833	16.593341025864	0
0	1840	16.624011910657	1
0	1841	16.631825794483	0
0	1847	16.785516707927	1
0	1848	16.793205707453	0
0	1855	16.918500014833	1
0	1856	16.926279280126	0
0	1862	17.020211085437	1
0	1863	17.027962890649	0
0	1867	17.062901579912	1
0	1868	17.070641917167	0
0	1873	17.184153203119	1
0	1874	17.191861152796	0
0	1878	17.207418735995	1
0	1880	17.208791524589	2
0	1881	17.215120502173	1
0	1884	17.222820223565	0
0	1889	17.37466225062	1
0	1890	17.38231985723	0
0	1894	17.383677761484	1
0	1895	17.391333001987	0
0	1899	17.424552909502	1
0	1900	17.432197440702	0
0	1904	17.458895801879	1
0	1905	17.466531358366	0
0	1909	17.470968573145	1
0	1910	17.478565056693	0
0	1916	17.541298320426	1
0	1917	17.54873435164	0
0	1921	17.553978883334	1
0	1922	17.561415114464	0
0	1926	17.577327356273	1
0	1927	17.584763955533	0
0	1931	17.61528907861	1
0	1932	17.622726276482	0
0	1938	17.659340242237	1
0	1939	17.666778134865	0
0	1943	17.667291846997	1
0	1945	17.669758237797	2
0	1947	17.674729865048	1
0	1950	17.682168000425	0
0	1956	17.740218856608	1
0	1957	17.747658025156	0
0	1963	17.794431382519	1
0	1964	17.801871406555	0
0	1973	17.958714493183	1
0	1974	17.966157110852	0
0	1981	18.019304693919	1
0	1982	18.026748268617	0
0	1987	18.088921607798	1
0	1988	18.096366282407	0
0	1992	18.115611404031	1
0	1994	18.116735465958	2
0	1995	18.123056500411	1
0	1999	18.124524438932	2
0	2000	18.130501714452	1
0	2003	18.13794704616	0
0	2012	18.262891650274	1
0	2013	18.270339074941	0
0	2017	18.291439487096	1
0	2018	18.298887363231	0
0	2023	18.310559196304	1
0	2024	18.318007374837	0
0	2029	18.381641676706	1
0	2030	18.389090979699	0
0	2035	18.470478916704	1
0	2036	18.477929625497	0
0	2040	18.517002835985	1
0	2042	18.524454281206	0
0	2047	18.5377825232	1
0	2048	18.54523429739	0
0	2055	18.65169494615	1
0	2056	18.659148524234	0
0	2060	18.682884901888	1
0	2061	18.690338974042	0
0	2066	18.728704879091	1
0	2067	18.736159677184	0
0	2072	18.857717584205	1
0	2073	18.865174427041	0
0	2077	18.86810446815	1
0	2078	18.875561475659	0
0	2082	18.96248669604	1
0	2083	18.969945200205	0
0	2087	19.009968319199	1
0	2088	19.017427576526	0
0	2093	19.091114143353	1
0	2095	19.094049467861	2
0	2096	19.098574688182	1
0	2099	19.106035351406	0
0	2103	19.116556448093	1
0	2104	19.124017396694	0
0	2111	19.188651712583	1
0	2112	19.196113805582	0
0	2121	19.24584951855	1
0	2122	19.253312519723	0
0	2127	19.257744916815	1
0	2128	19.265208106888	0
0	2132	19.26737238071	1
0	2133	19.274835723675	0
0	2137	19.391947121451	1
0	2139	19.39434423302	2
0	2141	19.399412443332	1
0	2144	19.406877883836	0
0	2148	19.428350775398	1
0	2149	19.435816675763	0
0	2155	19.577236508638	1
0	2156	19.584704775853	0
0	2160	19.608123581828	1
0	2161	19.615592340245	0
0	2168	19.759072478998	1
0	2169	19.766543638911	0
0	2173	19.766825041523	1
0	2174	19.774296324816	0
0	2178	19.797891885441	1
0	2179	19.805363663195	0
0	2184	19.885271700855	1
0	2186	19.886281388662	2
0	2187	19.892744869699	1
0	2190	19.900218157541	0
0	2197	20.018212231308	1
0	2198	20.025687517565	0
0	2202	20.040223021384	1
0	2203	20.047698658334	0
0	2207	20.103086067569	1
0	2208	20.110562706283	0
0	2212	20.121902185166	1
0	2213	20.12937912378	0
0	2218	20.180268389426	1
0	2219	20.187746258459	0
0	2223	20.230993392985	1
0	2224	20.238472070817	0
0	2229	20.295986176998	1
0	2230	20.30346589138	0
0	2236	20.472049715222	1
0	2237	20.479532239033	0
0	2242	20.544435049422	1
0	2243	20.551918728891	0
0	2247	20.566801716417	1
0	2248	20.57428575305	0
0	2252	20.633255586729	1
0	2253	20.640740684738	0
0	2260	20.694700376031	1
0	2261	20.702186455681	0
0	2265	20.702876878499	1
0	2266	20.710363088796	0
0	2270	20.712785904722	1
0	2271	20.720272273355	0
0	2275	20.770963292208	1
0	2276	20.778450590591	0
0	2281	20.855240882711	1
0	2283	20.862729528368	0
0	2290	20.983072881441	1
0	2291	20.990563571565	0
0	2297	21.202200676557	1
0	2299	21.203947678446	2
0	2300	21.209694873877	1
0	2303	21.217189191201	0
0	2307	21.223538971173	1
0	2308	21.231033510193	0
0	2312	21.23436896093	1
0	2313	21.241863673388	0
0	2317	21.270211515977	1
0	2319	21.277706802495	0
0	2326	21.34637066312	1
0	2327	21.353867169708	0
0	2331	21.410655518237	1
0	2333	21.412922244602	2
0	2335	21.414537829835	3
0	2336	21.418153054978	2
0	2339	21.425650711884	1
0	2343	21.431873990954	2
0	2344	21.433148488961	1
0	2347	21.440646386215	0
0	2351	21.474531319401	1
0	2352	21.482029880021	0
0	2358	21.57796874219	1
0	2359	21.585468961423	0
0	2363	21.609844582842	1
0	2364	21.61734531335	0
0	2368	21.634251761494	1
0	2369	21.64175288353	0
0	2374	21.741200579775	1
0	2375	21.748703417914	0
0	2382	21.862705959887	1
0	2384	21.862724067943	2
0	2385	21.870210748656	1
0	2389	21.877715657939	0
0	2393	21.880808752275	1
0	2395	21.885253194086	2
0	2396	21.888313831751	1
0	2399	21.895819031755	0
0	2403	21.910616750925	1
0	2404	21.918122309127	0
0	2409	21.949176939504	1
0	2411	21.955315930318	2
0	2412	21.956683117085	1
0	2415	21.964189415247	0
0	2419	21.972003007371	1
0	2420	21.979509551647	0
0	2425	22.061327743065	1
0	2427	22.068835722666	0
0	2431	22.096678503749	1
0	2432	22.10418705154	0
0	2440	22.240326232732	1
0	2441	22.247837090245	0
0	2445	22.250308920966	1
0	2446	22.257819939044	0
0	2450	22.261028032714	1
0	2451	22.26853922321	0
0	2455	22.396033027436	1
0	2456	22.403546390176	0
0	2460	22.415791546215	1
0	2461	22.423305226976	0
0	2465	22.464213705288	1
0	2466	22.471728165539	0
0	2473	22.523733758496	1
0	2474	22.531249177109	0
0	2481	22.599499590975	1
0	2483	22.603867053917	2
0	2484	22.607020533069	1
0	2488	22.6133186139	2
0	2489	22.614562113471	1
0	2493	22.615081998097	2
0	2494	22.622124502862	1
0	2498	22.624714348799	2
0	2499	22.629707874288	1
0	2502	22.637312403206	0
0	2506	22.645669465502	1
0	2507	22.653318915057	0
0	2511	22.69114083826	1
0	2512	22.698867923911	0
0	2516	22.717045007556	1
0	2517	22.724760233881	0
0	2521	22.738929720044	1
0	2524	22.746626599161	0
0	2529	22.781129143132	1
0	2530	22.788911418715	0
0	2536	22.867895304502	1
0	2537	22.875589093137	0
0	2541	22.910562568293	1
0	2542	22.918311550051	0
0	2546	22.97539080789	1
0	2547	22.983225181897	0
0	2551	22.996626180094	1
0	2552	23.004488936184	0
0	2556	23.008877094918	1
0	2557	23.016756318674	0
0	2561	23.038266560959	1
0	2562	23.04618557265	0
0	2567	23.106961795532	1
0	2568	23.114903007778	0
0	2572	23.122340326233	1
0	2573	23.13028419034	0
0	2577	23.149562186908	1
0	2578	23.157510749476	0
0	2583	23.161563661118	1
0	2585	23.165468378589	2
0	2586	23.169514296892	1
0	2589	23.177466306701	0
0	2594	23.24512434842	1
0	2595	23.253089448996	0
0	2599	23.337726535607	1
0	2601	23.345695062977	2
0	2602	23.345707727725	1
0	2606	23.352119375606	2
0	2607	23.353690309783	1
0	2610	23.361674282509	0
0	2614	23.38392085747	1
0	2615	23.391910101136	0
0	2619	23.401315772965	1
0	2622	23.408243090725	2
0	2623	23.409308052731	1
0	2626	23.417301728239	0
0	2630	23.423503434137	1
0	2631	23.431499589877	0
0	2635	23.513305285877	1
0	2637	23.518847875151	2
0	2638	23.521317167623	1
0	2641	23.529330455407	0
0	2647	23.617143525926	1
0	2648	23.625142960841	0
0	2654	23.711456727787	1
0	2656	23.717918143199	2
0	2657	23.719678748921	1
0	2660	23.72792710452	0
0	2664	23.747600667316	1
0	2665	23.755890667328	0
0	2670	23.815253997032	1
0	2671	23.823481067326	0
0	2678	23.957815686938	1
0	2679	23.965913227916	0
0	2685	24.093922629071	1
0	2686	24.101912145125	0
0	2690	24.107038477482	1
0	2691	24.115035734034	0
0	2695	24.132892446206	1
0	2696	24.140905004839	0
0	2700	24.188723622673	1
0	2701	24.196769426469	0
0	2706	24.268281365801	1
0	2707	24.276375022434	0
0	2711	24.279469535945	1
0	2712	24.287569967792	0
0	2719	24.415972054756	1
0	2720	24.424156071219	0
0	2724	24.428097694606	1
0	2726	24.428360770964	2
0	2727	24.436289219461	1
0	2730	24.444485824443	0
0	2738	24.619036132959	1
0	2739	24.627347733143	0
0	2743	24.635903727413	1
0	2744	24.644226104556	0
0	2748	24.64574214614	1
0	2750	24.647713885738	2
0	2751	24.65407082211	1
0	2754	24.662404837785	0
0	2758	24.708360348944	1
0	2759	24.716729339356	0
0	2763	24.720133437665	1
0	2764	24.728510051377	0
0	2770	24.799408637089	1
0	2772	24.800006006792	2
0	2773	24.807822445647	1
0	2776	24.81622438853	0
0	2780	24.858828728576	1
0	2782	24.861485914469	2
0	2783	24.867159449572	1
0	2786	24.87547865264	0
0	2790	24.877809489172	1
0	2791	24.886114013958	0
0	2795	24.933350607518	1
0	2796	24.941579415233	0
0	2800	24.955426968445	1
0	2801	24.963626062391	0
0	2805	24.973483754983	1
0	2806	24.981658704392	0
0	2813	25.066428466697	1
0	2814	25.074481351784	0
0	2819	25.165036686173	1
0	2821	25.168017458772	2
0	2823	25.172963992058	1
0	2826	25.180881372264	0
0	2830	25.189504210459	1
0	2831	25.197400960694	0
0	2836	25.217383080349	1
0	2837	25.225245300609	0
0	2841	25.352119734299	1
0	2842	25.359819241879	0
0	2846	25.407167142828	1
0	2848	25.414632576612	2
0	2849	25.414802094852	1
0	2852	25.42242817855	0
0	2857	25.594153722995	1
0	2859	25.60165753643	0
0	2864	25.636357569942	1
0	2865	25.643874917605	0
0	2869	25.647256628142	1
0	2871	25.654777478928	0
0	2875	25.665740678509	1
0	2876	25.673267477819	0
0	2882	25.756352517017	1
0	2883	25.763908613625	0
0	2888	25.843308935116	1
0	2889	25.850893362387	0
0	2893	25.853233895527	1
0	2894	25.860821569893	0
0	2898	25.875069965935	1
0	2899	25.882664794086	0
0	2903	25.920010678771	1
0	2905	25.926847882073	2
0	2906	25.927620272627	1
0	2909	25.935232372374	0
0	2913	25.93718168151	1
0	2914	25.944796932235	0
0	2918	25.969409205442	1
0	2920	25.977035096042	0
0	2924	25.982262412294	1
0	2926	25.989892554661	0
0	2930	25.997501200601	1
0	2931	26.005136390019	0
0	2936	26.038582126574	1
0	2937	26.046230955219	0
0	2941	26.111054660438	1
0	2944	26.118003077913	2
0	2945	26.118727669785	1
0	2948	26.12640324821	0
0	2954	26.188572755495	1
0	2955	26.196285841546	0
0	2961	26.251734475515	1
0	2963	26.252278111578	2
0	2964	26.259518872975	1
0	2967	26.267312150621	0
0	2972	26.312053861699	1
0	2974	26.312212673792	2
0	2975	26.319907603403	1
0	2978	26.327770464916	0
0	2982	26.335505892629	1
0	2983	26.343386929914	0
0	2988	26.46806494831	1
0	2989	26.476103908288	0
0	2993	26.527692188887	1
0	2994	26.535804267593	0
0	2998	26.548356861218	1
0	3000	26.553463000687	2
0	3001	26.556494591607	1
0	3004	26.564642468184	0
0	3008	26.572093321384	1
0	3010	26.579268865273	2
0	3011	26.580260717484	1
0	3014	26.588438371233	0
0	3018	26.596015817555	1
0	3019	26.604213331518	0
0	3024	26.81701450983	1
0	3026	26.825501130764	0
0	3031	26.831960343011	1
0	3032	26.840467253789	0
0	3036	26.871753390167	1
0	3037	26.880314798394	0
0	3041	26.950898163803	1
0	3042	26.959570064745	0
0	3046	26.96755108892	1
0	3047	26.976145969931	0
0	3051	26.983742113136	1
0	3052	26.992259484818	0
0	3057	27.047636556568	1
0	3058	27.056134228191	0
0	3064	27.114912357607	1
0	3065	27.123758599437	0
0	3069	27.23430450604	1
0	3070	27.243396590715	0
0	3074	27.293594471792	1
0	3075	27.302670069096	0
0	3079	27.379734552265	1
0	3080	27.388588754682	0
0	3084	27.422118366675	1
0	3086	27.429510429065	2
0	3087	27.430858017313	1
0	3091	27.439574414712	0
0	3096	27.490361730187	1
0	3097	27.498923039106	0
0	3101	27.510364922323	1
0	3103	27.5188753277	0
0	3107	27.520498541637	1
0	3108	27.528983389584	0
0	3114	27.606901892793	1
0	3115	27.615174906253	0
0	3120	27.640005063793	1
0	3121	27.648199694413	0
0	3128	27.774629669746	1
0	3129	27.782520266501	0
0	3133	27.810729952316	1
0	3134	27.818542818985	0
0	3139	27.884221202776	1
0	3141	27.885694283273	2
0	3142	27.891880469338	1
0	3146	27.893917185373	2
0	3147	27.899524074489	1
0	3151	27.90696606944	2
0	3152	27.907152113974	1
0	3155	27.914764682567	0
0	3164	28.041626084326	1
0	3165	28.049196512449	0
0	3173	28.185212794833	1
0	3176	28.189999293901	2
0	3177	28.193384989746	1
0	3180	28.201525433458	0
0	3184	28.246965293989	1
0	3185	28.254903523542	0
0	3191	28.337015631274	1
0	3192	28.345392976121	0
0	3200	28.540921923504	1
0	3201	28.548607362554	0
0	3205	28.674405567956	1
0	3206	28.682205641366	0
0	3210	28.698835770811	1
0	3211	28.706657195851	0
0	3215	28.749717751803	1
0	3216	28.757584024346	0
0	3220	28.825885441145	1
0	3221	28.833819817583	0
0	3226	28.874345203069	1
0	3227	28.882323526087	0
0	3231	28.92286426394	1
0	3232	28.930887077745	0
0	3236	28.942565110856	1
0	3237	28.95060613182	0
0	3244	28.99140648944	1
0	3246	28.992749560326	2
0	3247	28.998848867095	1
0	3251	28.999123191513	2
0	3252	29.006295114581	1
0	3256	29.007971985105	2
0	3257	29.01374523794	1
0	3260	29.021199243229	0
0	3264	29.02129018913	1
0	3265	29.028748129885	0
0	3271	29.063272626419	1
0	3273	29.067247969826	2
0	3274	29.07075254144	1
0	3277	29.078236385163	0
0	3282	29.139016369881	1
0	3283	29.146536259677	0
0	3288	29.17631826984	1
0	3289	29.183858003652	0
0	3293	29.209733255706	1
0	3294	29.217290854898	0
0	3298	29.23216664343	1
0	3300	29.233868911624	2
0	3301	29.239736284248	1
0	3305	29.245478700234	2
0	3306	29.247309996904	1
0	3309	29.254887787974	0
0	3316	29.33800296481	1
0	3318	29.345629937127	0
0	3322	29.362887483296	1
0	3323	29.370528061874	0
0	3328	29.392762915798	1
0	3329	29.400419893814	0
0	3333	29.432375454219	1
0	3334	29.440054285499	0
0	3338	29.454098265463	1
0	3339	29.461789133727	0
0	3344	29.519856950522	1
0	3346	29.527584487926	0
0	3351	29.708207036246	1
0	3352	29.716041565568	0
0	3357	29.755458031421	1
0	3359	29.757144231993	2
0	3360	29.763211788565	1
0	3363	29.770951293074	0
0	3367	29.811158091127	1
0	3369	29.814180385716	2
0	3370	29.818747896582	1
0	3375	29.826309340728	0
0	3380	29.863244606144	1
0	3381	29.871247033404	0
0	3387	30.037926773433	1
0	3388	30.046142065217	0
0	3392	30.06271625481	1
0	3393	30.070895279219	0
0	3398	30.161946138049	1
0	3399	30.169922246338	0
0	3404	30.182820936452	1
0	3405	30.19075563284	0
0	3409	30.230286972996	1
0	3410	30.238129087084	0
0	3414	30.273936690928	1
0	3415	30.281695553115	0
0	3420	30.305760936409	1
0	3421	30.313460206695	0
0	3425	30.379163247836	1
0	3426	30.386728499786	0
0	3431	30.421340204242	1
0	3432	30.428830539018	0
0	3441	30.554670440583	1
0	3442	30.562282074008	0
0	3446	30.590751164048	1
0	3448	30.598427874465	0
0	3453	30.68394314002	1
0	3454	30.691793201272	0
0	3460	30.835759741718	1
0	3461	30.843890408306	0
0	3465	30.878521478379	1
0	3467	30.886524691998	0
0	3472	30.911623134579	1
0	3473	30.919530398323	0
0	3478	31.003946603185	1
0	3479	31.012086461677	0
0	3483	31.012669687566	1
0	3485	31.014187514407	2
0	3487	31.018034347776	3
0	3488	31.020853172681	2
0	3492	31.029078013025	1
0	3495	31.037344840889	0
0	3500	31.102681700388	1
0	3501	31.111344269718	0
0	3505	31.125988413902	1
0	3506	31.134780180803	0
0	3510	31.137781159495	1
0	3512	31.146601152997	0
0	3516	31.215047210365	1
0	3517	31.223819937888	0
0	3521	31.276413574148	1
0	3522	31.285081499019	0
0	3526	31.298635603246	1
0	3528	31.307266191809	0
0	3535	31.391070477824	1
0	3536	31.399586282143	0
0	3540	31.409249456446	1
0	3541	31.417747969106	0
0	3545	31.429298431855	1
0	3547	31.434732714194	2
0	3548	31.437777955381	1
0	3552	31.446249473144	0
0	3556	31.461784164655	1
0	3557	31.470233099224	0
0	3561	31.478418058539	1
0	3563	31.486851415708	0
0	3570	31.703125146555	1
0	3571	31.711348230355	0
0	3576	31.755217011211	1
0	3577	31.763392154603	0
0	3581	31.770716666125	1
0	3582	31.778877652824	0
0	3586	31.830602758202	1
0	3587	31.838709505237	0
0	3591	31.905220556981	1
0	3592	31.913260722182	0
0	3599	32.04832043916	1
0	3601	32.056235928114	0
0	3605	32.075932180779	1
0	3606	32.083824056605	0
0	3611	32.135470455667	1
0	3613	32.14331189164	0
0	3617	32.155540080413	1
0	3619	32.163364658717	0
0	3623	32.241545919031	1
0	3626	32.249299069283	0
0	3631	32.319557764656	1
0	3632	32.327363214794	0
0	3636	32.351538301324	1
0	3637	32.359359411811	0
0	3641	32.383210228693	1
0	3643	32.391046910465	0
0	3647	32.423726784482	1
0	3648	32.431583476562	0
0	3652	32.489349839161	1
0	3654	32.492371137369	2
0	3655	32.497239158835	1
0	3658	32.505132419314	0
0	3662	32.505689317993	1
0	3665	32.513500557391	2
0	3666	32.513586803791	1
0	3670	32.521488242647	0
0	3675	32.605526846013	1
0	3676	32.61339521917	0
0	3682	32.656438698952	1
0	3683	32.664285499862	0
0	3688	32.723298756288	1
0	3689	32.731117406443	0
0	3693	32.769675665973	1
0	3694	32.777474907945	0
0	3699	32.806332107852	1
0	3701	32.809320599395	2
0	3702	32.814116077584	1
0	3705	32.821896811962	0
0	3710	32.89242782951	1
0	3711	32.900075817892	0
0	3715	32.901953478817	1
0	3716	32.909583465482	0
0	3723	33.035622232392	1
0	3725	33.036355039182	2
0	3726	33.044139345163	1
0	3729	33.052694232336	0
0	3737	33.118414447405	1
0	3739	33.121966257699	2
0	3740	33.127138753103	1
0	3743	33.135871185144	0
0	3747	33.140706499921	1
0	3748	33.149451599899	0
0	3752	33.15005740874	1
0	3753	33.158811260893	0
0	3758	33.217022540404	1
0	3759	33.225839585588	0
0	3764	33.273443126039	1
0	3765	33.282184161885	0
0	3771	33.324040078547	1
0	3773	33.332618343767	0
0	3778	33.561097703885	1
0	3779	33.569882111244	0
0	3787	33.658664593243	1
0	3788	33.667275876526	0
0	3792	33.703858680259	1
0	3793	33.712416877914	0
0	3797	33.731337486935	1
0	3799	33.736667657172	2
0	3800	33.739853473933	1
0	3803	33.748356463768	0
0	3807	33.768677923917	1
0	3808	33.777137214543	0
0	3813	33.791234943221	1
0	3815	33.79645312007	2
0	3816	33.799717623278	1
0	3819	33.808183185104	0
0	3823	33.833030114803	1
0	3824	33.841429114471	0
0	3828	33.846106484826	1
0	3829	33.854479641613	0
0	3833	33.905593800093	1
0	3834	33.913851371512	0
0	3839	33.945535904131	1
0	3840	33.953717641242	0
0	3845	33.981036795579	1
0	3846	33.989179168859	0
0	3851	34.020925306798	1
0	3852	34.029037294006	0
0	3857	34.120265418774	1
0	3858	34.128302707813	0
0	3864	34.186438010421	1
0	3865	34.194426300145	0
0	3873	34.376407134929	1
0	3874	34.384258019229	0
0	3878	34.394290513222	1
0	3879	34.402128705451	0
0	3883	34.407141812708	1
0	3885	34.413680924776	2
0	3886	34.41497090951	1
0	3889	34.422794475657	0
0	3894	34.446027132141	1
0	3896	34.453828836215	0
0	3900	34.457015818613	1
0	3902	34.464809816421	0
0	3906	34.483787230528	1
0	3907	34.49156251736	0
0	3911	34.513926478118	1
0	3912	34.521680807351	0
0	3917	34.535522784017	1
0	3918	34.54326216541	0
0	3922	34.546400126333	1
0	3923	34.554132000797	0
0	3929	34.611934497102	1
0	3932	34.618918811528	2
0	3933	34.619685387952	1
0	3936	34.627442776455	0
0	3942	34.741273956863	1
0	3943	34.748894694052	0
0	3948	34.809701021207	1
0	3950	34.813414371385	2
0	3951	34.817621180515	1
0	3954	34.825548272795	0
0	3959	34.941134371861	1
0	3960	34.949171174665	0
0	3964	34.956897842002	1
0	3966	34.960228684256	2
0	3967	34.964948865604	1
0	3971	34.966017596864	2
0	3973	34.96828198208	3
0	3974	34.973007171759	2
0	3978	34.97860858136	3
0	3979	34.98107278026	2
0	3983	34.989145710989	1
0	3987	34.99644158236	2
0	3988	34.997225983918	1
0	3992	35.00531361911	0
0	3996	35.123028808807	1
0	3998	35.131232823392	0
0	4002	35.168961378269	1
0	4003	35.177208723891	0
0	4008	35.267469138282	1
0	4009	35.275810973494	0
0	4015	35.415065984258	1
0	4017	35.422958700885	2
0	4018	35.423553518938	1
0	4021	35.432049586953	0
0	4025	35.469149319788	1
0	4026	35.47769152493	0
0	4030	35.493702333574	1
0	4031	35.502269591406	0
0	4035	35.554089661364	1
0	4037	35.562198722263	2
0	4038	35.562719165159	1
0	4041	35.571357638002	0
0	4045	35.617836076032	1
0	4046	35.626532277224	0
0	4050	35.633467907303	1
0	4051	35.642180621672	0
0	4057	35.787678758716	1
0	4058	35.796215082708	0
0	4063	35.859326189949	1
0	4064	35.867755593241	0
0	4070	35.962298591742	1
0	4071	35.970578935591	0
0	4076	36.007648556525	1
0	4077	36.01586491245	0
0	4081	36.031385307714	1
0	4082	36.039568564238	0
0	4086	36.077480141699	1
0	4087	36.085599877742	0
0	4093	36.169008129318	1
0	4094	36.177004614934	0
0	4098	36.183938580799	1
0	4099	36.191915315343	0
0	4103	36.199984377762	1
0	4104	36.20793999426	0
0	4108	36.224490831004	1
0	4109	36.232414409229	0
0	4115	36.450867052861	1
0	4116	36.458506443993	0
0	4120	36.468668891409	1
0	4121	36.476286796687	0
0	4127	36.49572439597	1
0	4129	36.498241540297	2
0	4130	36.503337675743	1
0	4133	36.510957447556	0
0	4138	36.541089193016	1
0	4139	36.548741320787	0
0	4146	36.658226566984	1
0	4147	36.665980862955	0
0	4151	36.713532161367	1
0	4152	36.721335649496	0
0	4156	36.744857931008	1
0	4157	36.752689560058	0
0	4161	36.764832515133	1
0	4163	36.765833393908	2
0	4164	36.772682194192	1
0	4167	36.780538989398	0
0	4171	36.874041135988	1
0	4172	36.881990991051	0
0	4177	36.910154697888	1
0	4178	36.918138244508	0
0	4186	37.153138889626	1
0	4187	37.161158136036	0
0	4191	37.183417267585	1
0	4192	37.19132008789	0
0	4196	37.228087136296	1
0	4197	37.235824235784	0
0	4201	37.24203475695	1
0	4202	37.249721526745	0
0	4206	37.25539182333	1
0	4207	37.263031004423	0
0	4213	37.294648157345	1
0	4214	37.302183175241	0
0	4218	37.312487740781	1
0	4219	37.320040477558	0
0	4228	37.553141862813	1
0	4229	37.560921150031	0
0	4234	37.643476306411	1
0	4235	37.651373598103	0
0	4239	37.703468570455	1
0	4240	37.7114317068	0
0	4244	37.747104176328	1
0	4245	37.755115898992	0
0	4252	37.928014889124	1
0	4254	37.936234536598	0
0	4258	37.96944729174	1
0	4260	37.977716086377	0
0	4264	37.98444053993	1
0	4265	37.992727264711	0
0	4269	37.993026646328	1
0	4270	38.001323674132	0
0	4275	38.056901266286	1
0	4276	38.065275753111	0
0	4280	38.128346105551	1
0	4281	38.136808963227	0
0	4286	38.196584545735	1
0	4287	38.205133567336	0
0	4291	38.205605874938	1
0	4293	38.214166419159	0
0	4297	38.243219932234	1
0	4298	38.251828856176	0
0	4302	38.254175774187	1
0	4303	38.262798892688	0
0	4307	38.268555771885	1
0	4308	38.277197592528	0
0	4314	38.31531053983	1
0	4315	38.324013732815	0
0	4319	38.352645529451	1
0	4320	38.361398359499	0
0	4324	38.403808695069	1
0	4325	38.412630473643	0
0	4329	38.518293701318	1
0	4330	38.527273767618	0
0	4334	38.529447840618	1
0	4335	38.538443632906	0
0	4341	38.659177633967	1
0	4342	38.668110516564	0
0	4348	38.804169392044	1
0	4349	38.812972465494	0
0	4353	38.817929638309	1
0	4355	38.826720588138	0
0	4360	38.88319437273	1
0	4361	38.891928272172	0
0	4365	38.922521098139	1
0	4366	38.931220976729	0
0	4371	39.008278141893	1
0	4373	39.014775868058	2
0	4374	39.016904744975	1
0	4377	39.025524045286	0
0	4382	39.095206907806	1
0	4384	39.100217159436	2
0	4385	39.103760483284	1
0	4388	39.112306939787	0
0	4392	39.13948375457	1
0	4394	39.148000606932	0
0	4398	39.157101079048	1
0	4399	39.165603407186	0
0	4403	39.210050874375	1
0	4404	39.218509845861	0
0	4410	39.393631208355	1
0	4412	39.394633844214	2
0	4414	39.397158819176	3
0	4415	39.401943224251	2
0	4418	39.410248707132	1
0	4421	39.418547672383	0
0	4426	39.443517970274	1
0	4427	39.451790930093	0
0	4431	39.470863299842	1
0	4432	39.479115006483	0
0	4436	39.52073256422	1
0	4438	39.528945791609	0
0	4442	39.625943628536	1
0	4443	39.634076840561	0
0	4448	39.684349921463	1
0	4449	39.692439383554	0