version 3
run non-monitoring-exponential-0-20221220-15:42:07-7073
attr configname non-monitoring-exponential
attr datetime 20221220-15:42:07
attr datetimef 20221220-154207
attr experiment non-monitoring-exponential
attr inifile omnetpp.ini
attr iterationvars ""
attr iterationvarsd ""
attr iterationvarsf ""
attr measurement ""
attr network AerocomSys
attr processid 7073
attr repetition 0
attr replication #0
attr resultdir results
attr runnumber 0
attr seedset 0
config description "aircraft in non-monitoring mode, new capacity selected with exponential distrbution"
config **.kMean 0.05
config **.exponentialMean 1
config **.generationMode 1
config **.operationMode 1
config network AerocomSys
config repeat 1
config seed-set 0
config num-rngs 3
config **.size 100
config **.minCapacity 6000
config **.maxCapacity 15000
config sim-time-limit 300s
config warmup-period 10s
config rng-class omnetpp::cMersenneTwister
config **.nDL 5
config **.nAC 1
config **.PacketGenerator.rng-0 0
config **.LinkSelector.rng-1 1
config **.DataLink[*].rng-0 0

vector 0 AerocomSys.airCraft[0].linkSelector queueLengthStatistic:vector ETV
attr recordingmode vector
attr source queueLength
attr title "queue length statistic"
vector 1 AerocomSys.airCraft[0].linkSelector serviceTimeStatistic:vector ETV
attr recordingmode vector
attr source serviceTime
attr title "service time statistic"
vector 2 AerocomSys.airCraft[0].linkSelector waitingTimeStatistic:vector ETV
attr recordingmode vector
attr source waitingTime
attr title "waiting time statistic"
vector 3 AerocomSys.controlTower responseTimeStatistic:vector ETV
attr recordingmode vector
attr source responseTime
attr title "response time statistic"
0	1058	10.005245567619	1
0	1063	10.047399719226	1
0	1068	10.063135802269	1
0	1074	10.123961234941	1
0	1079	10.190399128629	1
0	1084	10.207416465541	1
0	1090	10.371173624427	1
0	1095	10.399568832101	1
0	1100	10.413869880726	1
0	1106	10.484421101191	1
0	1111	10.527340749582	1
0	1116	10.552557939911	1
0	1121	10.59738748345	1
0	1126	10.710574162243	1
0	1131	10.753035202821	1
0	1136	10.803968139322	1
0	1141	10.816589138967	1
0	1147	10.927664483891	1
0	1154	11.080278566735	1
0	1160	11.137258964912	1
0	1165	11.166890166285	1
0	1170	11.196709136001	1
0	1175	11.290382129994	1
0	1180	11.482532459156	1
0	1185	11.542644387518	1
0	1187	11.548820719886	2
0	1195	11.56647172655	1
0	1201	11.639312654478	1
0	1207	11.723358764705	1
0	1212	11.749894889536	1
0	1217	11.775145826924	1
0	1223	11.831409927766	1
0	1228	11.937884897569	1
0	1233	11.952255421373	1
0	1239	11.995782212689	1
0	1245	12.014569154809	1
0	1250	12.121310677308	1
0	1256	12.289529199961	1
0	1261	12.348498346643	1
0	1266	12.392891417165	1
0	1271	12.457486880605	1
0	1276	12.511378624812	1
0	1281	12.546168597857	1
0	1286	12.584261986422	1
0	1291	12.740535404305	1
0	1296	12.753638266389	1
0	1303	12.805278116921	1
0	1308	12.830393656834	1
0	1313	12.857963456341	1
0	1318	12.906186134616	1
0	1323	12.952806278636	1
0	1328	12.985011514052	1
0	1330	12.985980503119	2
0	1338	13.017736888901	1
0	1344	13.035683249694	1
0	1349	13.098635425557	1
0	1354	13.15260143549	1
0	1359	13.169584672119	1
0	1364	13.186714653354	1
0	1369	13.210896437683	1
0	1374	13.259015190472	1
0	1379	13.328164150799	1
0	1386	13.356162204303	1
0	1392	13.461534584551	1
0	1397	13.468813283473	1
0	1399	13.474240638398	2
0	1407	13.49195184501	1
0	1409	13.496797982739	2
0	1417	13.538992406369	1
0	1422	13.560843807058	1
0	1427	13.605530260973	1
0	1432	13.645657860261	1
0	1437	13.688361847043	1
0	1439	13.690072017961	2
0	1447	13.74302248723	1
0	1453	13.916649261194	1
0	1458	13.969441741627	1
0	1463	13.988798246234	1
0	1468	14.01702877129	1
0	1473	14.029532846039	1
0	1478	14.142964545674	1
0	1483	14.150579226937	1
0	1488	14.173487871135	1
0	1490	14.178603901878	2
0	1498	14.207226979449	1
0	1506	14.414117467475	1
0	1512	14.525363200336	1
0	1517	14.540441495997	1
0	1522	14.622486374893	1
0	1527	14.66099021787	1
0	1532	14.721841192637	1
0	1537	14.751544867553	1
0	1539	14.756825499734	2
0	1544	14.762069591514	2
0	1554	14.888033698018	1
0	1560	14.909750980815	1
0	1567	14.972381357061	1
0	1572	15.004054487947	1
0	1580	15.342324013944	1
0	1585	15.434310653198	1
0	1590	15.442404157534	1
0	1596	15.559913022022	1
0	1601	15.661208462877	1
0	1603	15.663122608521	2
0	1608	15.671988887278	2
0	1616	15.707484783639	1
0	1621	15.755283104835	1
0	1626	15.764410034929	1
0	1628	15.77101922041	2
0	1637	15.84651039319	1
0	1642	15.940706837519	1
0	1647	16.040806162295	1
0	1653	16.123142117361	1
0	1658	16.149642261268	1
0	1663	16.191736309355	1
0	1668	16.199275859865	1
0	1673	16.225419361369	1
0	1675	16.227108700647	2
0	1677	16.230692469863	3
0	1690	16.433184811803	1
0	1695	16.492956740117	1
0	1700	16.516320368437	1
0	1706	16.546535322029	1
0	1711	16.573778178436	1
0	1716	16.637794888627	1
0	1718	16.640390516236	2
0	1727	16.741029153046	1
0	1732	16.763774745286	1
0	1738	16.949272774881	1
0	1740	16.950111163181	2
0	1748	17.046940025056	1
0	1753	17.060056490514	1
0	1755	17.06064565211	2
0	1763	17.133035356209	1
0	1768	17.155347997235	1
0	1773	17.29957858484	1
0	1778	17.365043503041	1
0	1783	17.434358070642	1
0	1788	17.443772819403	1
0	1793	17.464503446536	1
0	1798	17.501310001535	1
0	1803	17.534933027377	1
0	1805	17.537726530021	2
0	1813	17.558425476155	1
0	1818	17.56958243656	1
0	1823	17.579473911933	1
0	1825	17.580408685454	2
0	1830	17.589784633014	2
0	1838	17.668705269119	1
0	1843	17.699835136318	1
0	1848	17.712510421575	1
0	1854	17.816311974597	1
0	1859	17.837494829665	1
0	1864	17.981722044085	1
0	1869	18.113332987212	1
0	1874	18.160189923098	1
0	1879	18.221129763265	1
0	1884	18.266527964631	1
0	1886	18.268145804863	2
0	1895	18.344687366176	1
0	1897	18.353685233254	2
0	1905	18.388345221731	1
0	1912	18.436919329636	1
0	1914	18.439503474926	2
0	1922	18.48254965676	1
0	1927	18.542598202087	1
0	1932	18.556181605604	1
0	1939	18.800138250004	1
0	1944	18.9362056628	1
0	1949	18.951754053048	1
0	1954	18.999345538425	1
0	1959	19.056175363188	1
0	1965	19.094529345917	1
0	1971	19.194387944291	1
0	1976	19.238956873137	1
0	1981	19.308440726326	1
0	1987	19.373929994894	1
0	1994	19.540826711587	1
0	1999	19.559521036382	1
0	2004	19.599920039052	1
0	2009	19.625313295186	1
0	2014	19.637250938828	1
0	2019	19.649027167499	1
0	2024	19.661607098155	1
0	2026	19.671908700579	2
0	2034	19.684251664019	1
0	2039	19.828705443614	1
0	2044	19.870854382385	1
0	2050	19.938121754047	1
0	2055	19.968205703373	1
0	2060	20.001917931855	1
0	2065	20.177641865882	1
0	2070	20.190542504079	1
0	2076	20.247599399222	1
0	2081	20.262274781818	1
0	2083	20.266732496318	2
0	2085	20.269721544464	3
0	2087	20.27262516257	4
0	2098	20.301120040835	2
0	2106	20.334575727019	1
0	2111	20.353259216739	1
0	2116	20.459692721466	1
0	2122	20.519285626649	1
0	2128	20.70662035734	1
0	2133	20.730341171857	1
0	2138	20.778413150436	1
0	2140	20.788311537203	2
0	2148	20.827410323247	1
0	2150	20.828659740913	2
0	2159	20.925077747757	1
0	2161	20.928558631311	2
0	2169	20.996655217526	1
0	2174	21.053532142803	1
0	2179	21.086093679399	1
0	2184	21.116322740316	1
0	2190	21.172840517612	1
0	2195	21.211296507667	1
0	2200	21.257999524297	1
0	2205	21.371491525086	1
0	2210	21.434201688591	1
0	2219	21.66618431491	1
0	2224	21.69788081588	1
0	2229	21.710105366982	1
0	2234	21.740547012669	1
0	2241	21.79494223435	1
0	2248	21.913388142892	1
0	2253	21.928668387983	1
0	2255	21.936048189628	2
0	2257	21.937091550559	3
0	2262	21.950109121136	3
0	2274	22.021128293915	1
0	2280	22.127806458289	1
0	2285	22.147090842991	1
0	2293	22.264483031062	1
0	2298	22.288664950436	1
0	2303	22.34055745421	1
0	2308	22.384932550634	1
0	2313	22.404561202043	1
0	2319	22.493468368885	1
0	2325	22.530136752543	1
0	2331	22.579711967188	1
0	2333	22.579714734783	2
0	2341	22.682755796827	1
0	2346	22.701443961518	1
0	2348	22.717422694262	2
0	2356	22.745131235714	1
0	2363	22.825117207806	1
0	2369	22.93340539185	1
0	2371	22.943672780287	2
0	2379	23.000625662821	1
0	2386	23.153284896301	1
0	2391	23.183737126936	1
0	2396	23.241892791107	1
0	2401	23.274917945094	1
0	2404	23.287053869778	2
0	2413	23.364787016668	1
0	2418	23.512011030539	1
0	2420	23.525043037008	2
0	2429	23.590668436656	1
0	2434	23.696805769353	1
0	2439	23.711453342277	1
0	2444	23.730274809853	1
0	2446	23.742270985825	2
0	2454	23.900125762896	1
0	2459	23.936637146158	1
0	2464	23.968546576438	1
0	2466	23.969846463698	2
0	2474	24.032014002595	1
0	2476	24.043640253514	2
0	2481	24.051983985576	2
0	2489	24.079625904109	1
0	2495	24.145174522517	1
0	2500	24.168608346316	1
0	2505	24.220568628145	1
0	2510	24.251710093633	1
0	2512	24.263806075872	2
0	2520	24.280066876771	1
0	2522	24.290384776451	2
0	2530	24.334574059253	1
0	2536	24.416977867911	1
0	2541	24.516679827975	1
0	2546	24.585413825665	1
0	2548	24.591665455161	2
0	2556	24.647838480138	1
0	2561	24.684264672275	1
0	2566	24.700474627949	1
0	2568	24.707556729689	2
0	2573	24.717169801731	2
0	2581	24.780260435405	1
0	2586	24.841210402664	1
0	2591	24.866424399327	1
0	2596	24.897526245281	1
0	2603	24.939195157313	1
0	2608	25.03095832746	1
0	2610	25.041081265645	2
0	2615	25.052543481905	2
0	2620	25.060367270424	2
0	2625	25.069380985403	2
0	2633	25.102858014946	1
0	2635	25.10952504611	2
0	2643	25.131497815635	1
0	2649	25.195519033334	1
0	2658	25.336550830755	1
0	2660	25.338097145333	2
0	2668	25.410574884154	1
0	2673	25.479292034875	1
0	2678	25.548340189658	1
0	2680	25.553198573576	2
0	2688	25.670223171609	1
0	2693	25.682483076241	1
0	2695	25.686838505404	2
0	2703	25.756004328712	1
0	2709	25.796173916845	1
0	2715	25.86195522976	1
0	2721	25.905865983696	1
0	2723	25.908200370878	2
0	2733	26.071625190919	1
0	2738	26.083357983382	1
0	2743	26.100633962567	1
0	2748	26.117541698309	1
0	2753	26.131318095161	1
0	2758	26.18786401912	1
0	2760	26.193148377825	2
0	2762	26.196404021064	3
0	2764	26.197232325785	4
0	2779	26.237789376896	1
0	2784	26.370417302672	1
0	2786	26.370881453891	2
0	2795	26.426301941602	1
0	2802	26.515801421826	1
0	2807	26.59269285755	1
0	2812	26.800491412328	1
0	2817	26.817036906387	1
0	2822	26.877821430055	1
0	2827	26.921965457303	1
0	2829	26.931987567057	2
0	2834	26.935292167592	2
0	2842	26.971204491597	1
0	2848	27.004444879075	1
0	2853	27.047873165648	1
0	2860	27.237574354802	1
0	2865	27.31502493876	1
0	2872	27.419602767391	1
0	2877	27.466233360154	1
0	2882	27.48686985349	1
0	2884	27.499190644601	2
0	2893	27.66213669346	1
0	2898	27.692500657891	1
0	2903	27.705679513533	1
0	2908	27.811223952252	1
0	2914	27.960333986026	1
0	2919	27.994224086129	1
0	2925	28.136056095798	1
0	2931	28.198917945577	1
0	2936	28.27919088373	1
0	2941	28.312483008062	1
0	2946	28.36225619023	1
0	2951	28.423900213382	1
0	2959	28.527588286537	1
0	2964	28.562060013429	1
0	2969	28.579397678618	1
0	2974	28.672469260767	1
0	2980	28.766974345672	1
0	2985	28.777779156502	1
0	2991	28.825879752832	1
0	2996	28.900091876965	1
0	2998	28.900758139206	2
0	3007	29.083741005744	1
0	3012	29.105067796346	1
0	3018	29.204205241576	1
0	3020	29.2122219463	2
0	3028	29.288025392791	1
0	3033	29.488422875535	1
0	3038	29.698515846847	1
0	3043	29.731055713965	1
0	3048	29.801089498813	1
0	3054	29.835486672736	1
0	3056	29.835689488802	2
0	3064	29.8866988432	1
0	3069	29.902398738103	1
0	3074	29.925388303992	1
0	3080	29.951811665407	1
0	3082	29.959172917273	2
0	3090	29.987123300773	1
0	3095	30.07345496976	1
0	3100	30.091134798523	1
0	3105	30.101661462933	1
0	3110	30.127297195064	1
0	3115	30.163099460964	1
0	3117	30.169528472828	2
0	3122	30.182229041746	2
0	3133	30.379610705124	1
0	3135	30.38475912331	2
0	3143	30.410813064364	1
0	3149	30.509907581419	1
0	3154	30.552014396561	1
0	3159	30.73246144681	1
0	3164	30.753511111712	1
0	3169	30.915509260057	1
0	3176	30.993273978075	1
0	3181	31.111793357106	1
0	3186	31.13829143607	1
0	3191	31.212662923787	1
0	3196	31.234920390757	1
0	3201	31.255179534874	1
0	3206	31.280679076566	1
0	3208	31.284908051154	2
0	3213	31.30287274641	2
0	3221	31.329021129093	1
0	3226	31.403652737303	1
0	3231	31.41686626051	1
0	3236	31.547194850626	1
0	3238	31.554301126196	2
0	3247	31.573976246752	1
0	3249	31.57672161538	2
0	3260	31.72946460433	1
0	3265	31.79412199727	1
0	3267	31.794824326832	2
0	3269	31.795398989342	3
0	3280	31.833520173553	1
0	3285	31.907130381453	1
0	3290	31.925292492398	1
0	3292	31.933239151381	2
0	3300	32.040458424607	1
0	3302	32.044601538253	2
0	3307	32.05902717377	2
0	3312	32.063720901134	2
0	3320	32.120289839514	1
0	3325	32.176034210609	1
0	3330	32.259182499643	1
0	3335	32.273258700767	1
0	3341	32.301553427849	1
0	3346	32.328836313587	1
0	3352	32.39857976815	1
0	3357	32.439330684695	1
0	3362	32.527811675855	1
0	3367	32.626314554135	1
0	3372	32.650138483265	1
0	3377	32.715060765045	1
0	3379	32.720137469242	2
0	3387	32.735895470678	1
0	3392	32.75069056434	1
0	3394	32.757738958561	2
0	3402	32.802555418812	1
0	3404	32.805403745435	2
0	3414	32.837762480637	1
0	3419	32.855710546556	1
0	3424	32.889175690155	1
0	3429	32.904374268116	1
0	3434	32.935046222596	1
0	3440	32.965499445362	1
0	3445	33.002678604951	1
0	3451	33.060165674338	1
0	3456	33.08933686289	1
0	3461	33.148811675457	1
0	3467	33.244553788339	1
0	3472	33.261223955258	1
0	3477	33.289632479445	1
0	3482	33.313528378821	1
0	3487	33.401214111072	1
0	3492	33.411206887968	1
0	3497	33.446807291249	1
0	3504	33.524494566351	1
0	3506	33.529011428555	2
0	3508	33.531937823502	3
0	3519	33.585884168927	1
0	3524	33.645584837457	1
0	3529	33.657155886055	1
0	3534	33.732566647636	1
0	3539	33.826522569347	1
0	3544	33.901643209033	1
0	3549	33.958827740062	1
0	3554	33.973843994076	1
0	3559	33.983667088371	1
0	3565	34.007072411033	1
0	3567	34.010693366539	2
0	3575	34.05498139884	1
0	3577	34.055468169307	2
0	3582	34.071397361701	2
0	3590	34.182701561173	1
0	3595	34.20587106255	1
0	3597	34.213033713619	2
0	3605	34.224007121664	1
0	3610	34.299530201725	1
0	3615	34.330326165914	1
0	3620	34.459948596353	1
0	3622	34.462230498828	2
0	3630	34.525025173045	1
0	3636	34.605446065499	1
0	3641	34.639193614182	1
0	3643	34.643197556979	2
0	3651	34.674894163304	1
0	3659	34.711471430261	1
0	3664	34.818626415282	1
0	3669	34.836948979874	1
0	3674	34.870460573703	1
0	3679	34.913543948293	1
0	3685	34.940314165848	1
0	3690	35.100554607329	1
0	3695	35.110119409624	1
0	3700	35.161981664329	1
0	3705	35.194227088887	1
0	3707	35.196027230374	2
0	3717	35.272569651321	1
0	3722	35.300710911412	1
0	3727	35.341355829471	1
0	3732	35.377025043611	1
0	3734	35.38573480163	2
0	3742	35.424147468723	1
0	3744	35.431911747998	2
0	3752	35.489101516954	1
0	3757	35.541515972202	1
0	3762	35.557774515726	1
0	3767	35.596516634701	1
0	3769	35.603414296297	2
0	3777	35.623117174894	1
0	3782	35.648051791538	1
0	3784	35.656002392378	2
0	3794	35.812643866855	1
0	3796	35.821353802684	2
0	3801	35.831713061797	2
0	3806	35.838642402868	2
0	3815	35.955804399373	1
0	3820	35.999051304844	1
0	3825	36.038293155824	1
0	3827	36.043133029439	2
0	3835	36.073657171689	1
0	3840	36.194357993214	1
0	3845	36.301229077735	1
0	3847	36.305559927457	2
0	3855	36.336240137944	1
0	3861	36.4168067379	1
0	3866	36.481204836654	1
0	3871	36.58603665033	1
0	3876	36.611496774673	1
0	3878	36.616402750804	2
0	3886	36.733596232844	1
0	3891	36.761379178502	1
0	3896	36.819942363249	1
0	3901	36.851991040512	1
0	3906	36.912126729703	1
0	3911	36.955525228804	1
0	3916	36.975379276305	1
0	3921	37.038361334836	1
0	3926	37.109050501313	1
0	3928	37.110422606335	2
0	3936	37.16096106449	1
0	3941	37.226687169394	1
0	3946	37.240410345494	1
0	3951	37.313238356073	1
0	3953	37.321988108484	2
0	3958	37.322478830304	2
0	3967	37.402056636444	1
0	3972	37.420485783425	1
0	3979	37.580398532264	1
0	3984	37.593653187334	1
0	3989	37.624290459577	1
0	3994	37.659291741383	1
0	3999	37.703991811517	1
0	4005	37.857645572656	1
0	4011	37.955144418248	1
0	4016	37.995945346446	1
0	4021	38.02649822451	1
0	4023	38.03162581916	2
0	4032	38.18332294778	1
0	4037	38.231923492333	1
0	4042	38.274795247464	1
0	4048	38.374192220206	1
0	4053	38.460145685795	1
0	4055	38.468722617164	2
0	4064	38.588481606633	1
0	4070	38.83265655615	1
0	4075	38.917168303888	1
0	4077	38.921609923021	2
0	4082	38.930292751181	2
0	4084	38.935253827505	3
0	4095	38.984817802793	1
0	4100	39.035020361487	1
0	4105	39.06043133419	1
0	4110	39.209520317056	1
0	4113	39.212758601695	2
0	4121	39.350788824479	1
0	4126	39.378374005109	1
0	4131	39.408028084975	1
0	4136	39.422994504096	1
0	4143	39.488036375469	1
0	4148	39.582572833191	1
0	4153	39.650358758884	1
0	4155	39.652052351646	2
0	4160	39.670387609336	2
0	4170	39.83007570297	1
0	4172	39.83645438166	2
0	4180	39.858408230939	1
0	4185	39.887746671273	1
0	4190	39.909804411809	1
0	4196	39.934664876126	1
0	4198	39.935488040325	2
0	4206	39.973436279037	1
0	4208	39.983678892394	2
0	4216	40.077010915903	1
0	4221	40.102657265494	1
0	4227	40.141080394364	1
0	4232	40.273539807476	1
0	4237	40.330553751322	1
0	4239	40.335800388688	2
0	4248	40.382775487981	1
0	4254	40.528071468164	1
0	4256	40.533255009996	2
0	4265	40.63506971936	1
0	4267	40.639896783311	2
0	4275	40.670168472393	1
0	4277	40.673048118234	2
0	4285	40.692826398254	1
0	4287	40.697351771761	2
0	4292	40.710598518643	2
0	4297	40.72413473818	2
0	4306	40.771790865093	1
0	4311	40.863267972886	1
0	4313	40.864949668932	2
0	4321	40.901895669929	1
0	4323	40.902682126118	2
0	4331	40.938664371002	1
0	4336	40.966664789669	1
0	4341	41.019131897965	1
0	4343	41.022656995383	2
0	4351	41.061984949978	1
0	4356	41.076498620734	1
0	4358	41.078148819987	2
0	4363	41.090646360819	2
0	4372	41.134039454313	1
0	4377	41.148636757899	1
0	4382	41.222357869138	1
0	4384	41.229381654986	2
0	4392	41.252980059375	1
0	4394	41.253585521628	2
0	4402	41.287353315137	1
0	4404	41.293489065503	2
0	4412	41.493367239339	1
0	4418	41.541546874153	1
0	4420	41.555575670462	2
0	4428	41.738553776385	1
0	4435	41.761999842749	1
0	4441	41.994013842546	1
0	4443	41.996350587633	2
0	4451	42.022652127421	1
0	4456	42.041210213461	1
0	4458	42.050104051354	2
0	4466	42.139150785099	1
0	4471	42.190061664039	1
0	4477	42.272320835393	1
0	4483	42.306018007604	1
0	4488	42.357103924974	1
0	4494	42.584495117567	1
0	4499	42.607446513941	1
0	4501	42.610823221785	2
0	4509	42.629576318941	1
0	4514	42.706023262477	1
0	4521	42.786956315798	1
0	4526	42.803968176779	1
0	4528	42.807620759637	2
0	4533	42.821436019283	2
0	4541	42.878969148929	1
0	4546	42.933279314487	1
0	4551	42.957239949211	1
0	4556	42.971362284809	1
0	4562	43.021608950262	1
0	4567	43.076418578312	1
0	4572	43.207200624933	1
0	4578	43.243619503585	1
0	4584	43.339806432118	1
0	4589	43.3673965382	1
0	4594	43.401822232602	1
0	4599	43.442271217359	1
0	4604	43.470187556822	1
0	4609	43.487104862757	1
0	4615	43.573560844641	1
0	4620	43.634867455253	1
0	4625	43.701881253352	1
0	4630	43.728676193119	1
0	4635	43.758309064016	1
0	4640	43.780666059146	1
0	4646	43.954198313173	1
0	4651	44.042402682782	1
0	4656	44.064964622707	1
0	4661	44.194455929982	1
0	4666	44.219792090677	1
0	4668	44.22214705423	2
0	4676	44.289248041289	1
0	4681	44.302487154956	1
0	4686	44.332295749526	1
0	4691	44.353721129735	1
0	4697	44.492178353877	1
0	4704	44.576539268315	1
0	4709	44.59140794471	1
0	4716	44.803058734527	1
0	4721	44.827102645742	1
0	4727	45.000745431037	1
0	4732	45.060469928212	1
0	4737	45.178136666616	1
0	4742	45.29182202495	1
0	4747	45.309410394221	1
0	4749	45.31586231938	2
0	4758	45.557348331778	1
0	4763	45.571171967605	1
0	4768	45.585517422374	1
0	4773	45.598473035168	1
0	4776	45.604070262225	2
0	4784	45.637689407327	1
0	4789	45.788437820936	1
0	4794	45.899498530096	1
0	4799	45.912789357547	1
0	4804	45.934956077347	1
0	4809	45.993477863848	1
0	4815	46.017803820836	1
0	4817	46.020810239293	2
0	4826	46.14509179351	1
0	4831	46.210689947564	1
0	4833	46.216731517377	2
0	4842	46.323466637104	1
0	4850	46.373331583312	1
0	4855	46.389234310572	1
0	4857	46.396359457855	2
0	4865	46.420185248904	1
0	4870	46.443625033486	1
0	4875	46.467068941267	1
0	4880	46.486677005748	1
0	4885	46.55574995974	1
0	4892	46.612739730073	1
0	4897	46.626317519657	1
0	4903	46.705685381142	1
0	4908	46.715113617355	1
0	4913	46.750165892821	1
0	4919	46.779993388665	1
0	4924	46.797559452742	1
0	4929	46.815713394751	1
0	4935	46.924274688819	1
0	4941	47.01565100221	1
0	4946	47.037334244979	1
0	4951	47.0509077433	1
0	4956	47.11795282953	1
0	4961	47.152849706972	1
0	4966	47.193374364331	1
0	4971	47.336245631722	1
0	4976	47.347497756415	1
0	4981	47.397753538844	1
0	4987	47.437514648909	1
0	4992	47.53849387407	1
0	4997	47.575155141004	1
0	5002	47.716000727502	1
0	5007	47.737446319291	1
0	5013	47.806914244638	1
0	5015	47.808160649424	2
0	5024	47.868288516659	1
0	5026	47.8763456456	2
0	5034	48.048392847979	1
0	5036	48.055462503616	2
0	5046	48.314718974768	1
0	5051	48.37625491732	1
0	5056	48.406312649639	1
0	5061	48.468046643442	1
0	5064	48.471721962313	2
0	5072	48.519027049376	1
0	5077	48.536348715751	1
0	5082	48.592071627337	1
0	5084	48.600336277953	2
0	5092	48.630002806366	1
0	5097	48.657022941246	1
0	5103	48.716572013916	1
0	5105	48.723609271687	2
0	5113	48.747376255169	1
0	5118	48.793708185184	1
0	5120	48.79897799168	2
0	5128	48.823106752438	1
0	5134	48.984372556624	1
0	5140	49.097246396162	1
0	5142	49.10100598662	2
0	5151	49.272787156244	1
0	5153	49.273761620892	2
0	5161	49.313342075622	1
0	5168	49.507887580142	1
0	5173	49.523954595285	1
0	5175	49.531991097313	2
0	5183	49.576843748018	1
0	5188	49.591811398165	1
0	5193	49.705346903535	1
0	5198	49.717484175403	1
0	5203	49.743589740624	1
0	5208	49.786954341566	1
0	5214	49.827111180162	1
0	5219	50.013081595707	1
0	5224	50.028930464701	1
0	5229	50.044872517122	1
0	5234	50.075261755328	1
0	5239	50.250714932878	1
0	5244	50.276399213541	1
0	5246	50.277690615762	2
0	5251	50.291969061787	2
0	5259	50.401451397515	1
0	5264	50.436698863584	1
0	5269	50.498353299945	1
0	5274	50.516934087686	1
0	5279	50.533204923544	1
0	5284	50.556548140722	1
0	5289	50.669172784226	1
0	5294	50.706391697296	1
0	5296	50.707735728272	2
0	5304	50.777169591965	1
0	5309	50.826296009101	1
0	5314	50.846582326294	1
0	5319	50.866572089918	1
0	5325	50.995527746457	1
0	5330	51.166273991579	1
0	5335	51.265414620593	1
0	5337	51.274645414238	2
0	5342	51.277141194359	2
0	5350	51.393017497487	1
0	5355	51.407645027547	1
0	5360	51.42766410412	1
0	5365	51.45720586514	1
0	5372	51.567222331162	1
0	5374	51.572748124992	2
0	5382	51.608666416753	1
0	5387	51.630088468193	1
0	5392	51.665820177562	1
0	5397	51.733192618747	1
0	5402	51.757648039278	1
0	5407	51.814700205991	1
0	5412	51.852460796879	1
0	5417	51.901154726453	1
0	5422	52.045910607304	1
0	5428	52.107895511335	1
0	5433	52.21957750389	1
0	5438	52.231043362472	1
0	5443	52.287566222388	1
0	5448	52.308470805335	1
0	5453	52.359418464389	1
0	5458	52.415806486068	1
0	5463	52.455550127871	1
0	5468	52.561245468603	1
0	5473	52.577165119406	1
0	5478	52.616392954252	1
0	5480	52.62441715962	2
0	5488	52.641030190799	1
0	5493	52.738032601293	1
0	5495	52.739567689944	2
0	5503	52.789968366968	1
0	5509	52.851920192337	1
0	5514	52.869728481415	1
0	5516	52.87012424874	2
0	5524	52.900953903166	1
0	5529	52.924268754488	1
0	5531	52.925510414875	2
0	5539	52.963318727265	1
0	5544	53.004148361707	1
0	5549	53.131772186384	1
0	5554	53.154176584803	1
0	5556	53.158864354183	2
0	5564	53.193793404487	1
0	5569	53.219832347731	1
0	5571	53.228172135637	2
0	5573	53.229402817841	3
0	5584	53.257116241512	1
0	5589	53.278090207685	1
0	5594	53.396404720877	1
0	5599	53.445078348059	1
0	5601	53.445505748991	2
0	5606	53.461866268057	2
0	5615	53.635335959996	1
0	5620	53.647106253321	1
0	5625	53.705809760161	1
0	5627	53.711957888505	2
0	5632	53.717193502176	2
0	5640	53.760229237552	1
0	5645	53.777337972133	1
0	5650	53.836754430147	1
0	5655	53.875480269544	1
0	5661	53.931210819694	1
0	5667	53.99560533165	1
0	5672	54.144265748624	1
0	5677	54.168887817443	1
0	5679	54.169023161172	2
0	5684	54.181902404489	2
0	5692	54.23399462773	1
0	5697	54.264330248192	1
0	5702	54.310193838038	1
0	5707	54.48911892433	1
0	5712	54.533545359946	1
0	5717	54.623279015646	1
0	5724	54.787811457159	1
0	5731	54.910943670629	1
0	5733	54.911794451815	2
0	5742	54.966817878339	1
0	5747	55.02643366705	1
0	5752	55.055484099823	1
0	5759	55.139498219827	1
0	5764	55.197271956264	1
0	5769	55.23291978022	1
0	5774	55.285211044859	1
0	5779	55.305531688196	1
0	5781	55.307008278754	2
0	5789	55.385241106289	1
0	5794	55.511235540981	1
0	5796	55.516350630031	2
0	5804	55.555444851186	1
0	5809	55.584617859801	1
0	5817	55.820937619644	1
0	5822	55.857631117995	1
0	5827	55.881783769208	1
0	5832	55.940985156025	1
0	5839	56.023152817785	1
0	5841	56.027917041929	2
0	5849	56.058819660786	1
0	5854	56.071742623222	1
0	5859	56.159415029136	1
0	5864	56.185822228672	1
0	5870	56.22455291549	1
0	5876	56.273367516638	1
0	5882	56.382503211102	1
0	5888	56.49150423346	1
0	5893	56.597561956302	1
0	5899	56.64578694439	1
0	5905	56.665684364122	1
0	5907	56.672846799311	2
0	5915	56.698758191716	1
0	5921	56.895831125947	1
0	5926	56.93516528172	1
0	5932	57.037867905913	1
0	5937	57.086470354337	1
0	5943	57.121400532684	1
0	5948	57.145250420231	1
0	5954	57.273026306064	1
0	5959	57.312084745563	1
0	5964	57.351061497005	1
0	5966	57.357505429307	2
0	5975	57.485902060742	1
0	5980	57.542982836918	1
0	5985	57.631550502884	1
0	5990	57.648472559525	1
0	5995	57.821023065993	1
0	5997	57.823219427699	2
0	6005	57.949370300767	1
0	6007	57.955540774342	2
0	6009	57.957375727856	3
0	6011	57.963002225175	4
0	6016	57.972607003982	4
0	6024	57.99163255141	3
0	6029	58.016276489828	3
0	6035	58.03043011162	3
0	6046	58.182406691127	1
0	6051	58.223772987307	1
0	6056	58.241608799941	1
0	6062	58.360020602591	1
0	6065	58.368766115596	2
0	6073	58.412153872743	1
0	6078	58.5208655181	1
0	6083	58.566422808504	1
0	6088	58.595987947782	1
0	6090	58.609581239711	2
0	6098	58.728812006873	1
0	6103	58.772292774915	1
0	6105	58.781024164739	2
0	6110	58.78890776738	2
0	6118	58.843012861604	1
0	6123	58.863458738066	1
0	6128	58.892473217465	1
0	6133	58.941585126685	1
0	6135	58.94556363444	2
0	6140	58.967980099771	2
0	6148	59.027592711875	1
0	6153	59.148545281583	1
0	6158	59.162756268759	1
0	6163	59.268145286679	1
0	6165	59.270166365562	2
0	6174	59.298638171256	1
0	6176	59.301728978688	2
0	6184	59.338179314757	1
0	6186	59.34133048697	2
0	6194	59.373516727263	1
0	6200	59.492670140923	1
0	6203	59.502859410033	2
0	6211	59.57019077446	1
0	6216	59.598716073864	1
0	6221	59.712885775585	1
0	6223	59.723270939896	2
0	6232	59.779096868574	1
0	6237	59.841896648513	1
0	6242	59.879535131115	1
0	6248	59.916547740686	1
0	6253	59.934700098406	1
0	6259	59.954024807508	1
0	6266	60.263820313444	1
0	6268	60.263975531284	2
0	6273	60.286461199681	2
0	6282	60.331939734925	1
0	6287	60.363744907643	1
0	6292	60.416104520418	1
0	6297	60.439864992357	1
0	6299	60.440125148997	2
0	6307	60.634557385135	1
0	6313	60.810256326283	1
0	6315	60.819854221381	2
0	6323	60.874366500704	1
0	6328	60.8942404547	1
0	6333	60.911586898858	1
0	6338	60.968613122606	1
0	6340	60.979793075523	2
0	6345	60.983057755305	2
0	6354	61.113041417572	1
0	6359	61.159770438389	1
0	6364	61.178269397377	1
0	6369	61.210739933717	1
0	6374	61.236550106464	1
0	6379	61.253253860617	1
0	6384	61.303381981033	1
0	6389	61.316999542351	1
0	6394	61.427660903928	1
0	6399	61.463791015805	1
0	6404	61.492126113797	1
0	6409	61.515063678929	1
0	6417	61.646770248726	1
0	6423	61.677258357369	1
0	6428	61.722092649198	1
0	6433	61.742677678092	1
0	6438	61.770940442158	1
0	6447	61.947098009219	1
0	6452	61.992018127541	1
0	6454	61.999179291115	2
0	6463	62.021066263921	1
0	6465	62.02615704602	2
0	6474	62.079661170501	1
0	6479	62.100694554121	1
0	6485	62.15351660383	1
0	6490	62.198221898236	1
0	6496	62.284441492509	1
0	6501	62.33826101548	1
0	6506	62.36403339298	1
0	6511	62.389346591334	1
0	6513	62.391261031223	2
0	6523	62.752934453863	1
0	6529	62.961706634074	1
0	6534	62.983391607594	1
0	6539	63.013114908429	1
0	6544	63.077015014887	1
0	6552	63.215752745966	1
0	6558	63.266500693884	1
0	6563	63.322244036588	1
0	6570	63.406090773238	1
0	6575	63.421600579401	1
0	6582	63.608558003303	1
0	6587	63.650071035641	1
0	6592	63.760341075831	1
0	6598	63.917590953466	1
0	6603	63.989906332074	1
0	6605	63.995929245462	2
0	6613	64.055836814854	1
0	6618	64.071725281923	1
0	6623	64.092161164635	1
0	6625	64.096442204341	2
0	6630	64.104432193363	2
0	6638	64.176898286837	1
0	6640	64.180132467094	2
0	6642	64.181228836128	3
0	6650	64.195075947394	2
0	6655	64.202457541556	2
0	6663	64.230764019141	1
0	6668	64.245861769315	1
0	6673	64.282768606442	1
0	6679	64.385197764272	1
0	6685	64.459356434674	1
0	6690	64.469243023071	1
0	6696	64.628637231685	1
0	6701	64.657031616341	1
0	6703	64.663271270954	2
0	6711	64.682932135304	1
0	6713	64.688590801924	2
0	6721	64.732372741829	1
0	6726	64.776915431924	1
0	6732	64.914726085798	1
0	6738	64.983128786867	1
0	6743	65.124454985395	1
0	6749	65.218698216105	1
0	6751	65.221395063926	2
0	6760	65.358707657437	1
0	6765	65.404050812802	1
0	6770	65.609047527435	1
0	6777	65.720236668223	1
0	6782	65.745761426358	1
0	6787	65.821679883778	1
0	6792	65.845608712331	1
0	6797	65.857492005886	1
0	6802	65.865489216554	1
0	6807	65.937896522751	1
0	6812	65.995645249429	1
0	6817	66.006123473715	1
0	6822	66.059590026633	1
0	6827	66.174102887628	1
0	6832	66.273150652434	1
0	6834	66.273599221801	2
0	6836	66.27871514578	3
0	6841	66.283443482605	3
0	6852	66.317879024803	1
0	6858	66.366150814788	1
0	6863	66.409654810306	1
0	6868	66.433753770784	1
0	6873	66.447578154989	1
0	6875	66.452655593518	2
0	6880	66.461913396192	2
0	6888	66.671676827198	1
0	6893	66.769832991676	1
0	6899	66.883281446007	1
0	6901	66.886297347196	2
0	6906	66.902109202488	2
0	6914	66.933911726044	1
0	6920	66.965957497204	1
0	6922	66.97211301995	2
0	6931	67.004785682936	1
0	6936	67.035323391679	1
0	6941	67.070826908962	1
0	6947	67.266333947445	1
0	6952	67.437290772579	1
0	6957	67.464847669995	1
0	6959	67.470113390955	2
0	6968	67.567402620151	1
0	6970	67.569425517934	2
0	6972	67.575664894052	3
0	6983	67.608718884093	1
0	6988	67.624540253652	1
0	6993	67.655188617086	1
0	6999	67.68104696344	1
0	7004	67.694458118104	1
0	7009	67.719983746901	1
0	7011	67.72301746191	2
0	7019	67.778660652491	1
0	7021	67.785271232482	2
0	7029	67.806405721885	1
0	7034	67.903565749701	1
0	7040	67.966113182734	1