version 3
run non-monitoring-exponential-0-20221227-23:39:40-44042
attr configname non-monitoring-exponential
attr datetime 20221227-23:39:40
attr datetimef 20221227-233940
attr experiment non-monitoring-exponential
attr inifile omnetpp.ini
attr iterationvars ""
attr iterationvarsd ""
attr iterationvarsf ""
attr measurement ""
attr network AerocomSys
attr processid 44042
attr repetition 0
attr replication #0
attr resultdir results
attr runnumber 0
attr seedset 0
config description "aircraft in non-monitoring mode, new capacity selected with exponential distrbution"
config **.exponentialMean 1
config **.generationMode 1
config **.operationMode 1
config network AerocomSys
config repeat 1
config seed-set 0
config num-rngs 3
config **.size 100
config **.minCapacity 6000
config **.maxCapacity 15000
config sim-time-limit 300s
config warmup-period 10s
config rng-class omnetpp::cMersenneTwister
config **.nDL 15
config **.nAC 1
config **.kMean 0.05
config **.PacketGenerator.rng-0 0
config **.LinkSelector.rng-1 1
config **.DataLink[*].rng-0 0

vector 0 AerocomSys.airCraft[0].linkSelector queueLengthStatistic:vector ETV
attr recordingmode vector
attr source queueLength
attr title "queue length statistic"
vector 1 AerocomSys.airCraft[0].linkSelector serviceTimeStatistic:vector ETV
attr recordingmode vector
attr source serviceTime
attr title "service time statistic"
vector 2 AerocomSys.airCraft[0].linkSelector waitingTimeStatistic:vector ETV
attr recordingmode vector
attr source waitingTime
attr title "waiting time statistic"
vector 3 AerocomSys.controlTower responseTimeStatistic:vector ETV
attr recordingmode vector
attr source responseTime
attr title "response time statistic"
0	1174	10.005245567619	1
0	1179	10.047399719226	1
0	1184	10.063135802269	1
0	1190	10.123961234941	1
0	1196	10.190399128629	1
0	1201	10.207416465541	1
0	1208	10.371173624427	1
0	1213	10.399568832101	1
0	1218	10.413869880726	1
0	1223	10.484421101191	1
0	1229	10.527340749582	1
0	1235	10.552557939911	1
0	1242	10.59738748345	1
0	1247	10.710574162243	1
0	1252	10.753035202821	1
0	1258	10.803968139322	1
0	1264	10.816589138967	1
0	1270	10.927664483891	1
0	1277	11.080278566735	1
0	1282	11.137258964912	1
0	1287	11.166890166285	1
0	1292	11.196709136001	1
0	1300	11.290382129994	1
0	1308	11.482532459156	1
0	1314	11.542644387518	1
0	1317	11.548820719886	2
0	1325	11.56647172655	1
0	1330	11.639312654478	1
0	1337	11.723358764705	1
0	1343	11.749894889536	1
0	1348	11.775145826924	1
0	1354	11.831409927766	1
0	1359	11.937884897569	1
0	1364	11.952255421373	1
0	1369	11.995782212689	1
0	1374	12.014569154809	1
0	1379	12.121310677308	1
0	1387	12.289529199961	1
0	1392	12.348498346643	1
0	1397	12.392891417165	1
0	1403	12.457486880605	1
0	1408	12.511378624812	1
0	1413	12.546168597857	1
0	1419	12.584261986422	1
0	1427	12.740535404305	1
0	1434	12.753638266389	1
0	1439	12.805278116921	1
0	1444	12.830393656834	1
0	1449	12.857963456341	1
0	1454	12.906186134616	1
0	1459	12.952806278636	1
0	1465	12.985011514052	1
0	1467	12.985980503119	2
0	1476	13.017736888901	1
0	1481	13.035683249694	1
0	1488	13.098635425557	1
0	1493	13.15260143549	1
0	1498	13.169584672119	1
0	1503	13.186714653354	1
0	1509	13.210896437683	1
0	1515	13.259015190472	1
0	1520	13.328164150799	1
0	1526	13.356162204303	1
0	1532	13.461534584551	1
0	1534	13.468813283473	2
0	1540	13.474240638398	2
0	1548	13.49195184501	1
0	1550	13.496797982739	2
0	1558	13.538992406369	1
0	1563	13.560843807058	1
0	1570	13.605530260973	1
0	1575	13.645657860261	1
0	1580	13.688361847043	1
0	1582	13.690072017961	2
0	1590	13.74302248723	1
0	1597	13.916649261194	1
0	1605	13.969441741627	1
0	1610	13.988798246234	1
0	1615	14.01702877129	1
0	1621	14.029532846039	1
0	1629	14.142964545674	1
0	1631	14.150579226937	2
0	1639	14.173487871135	1
0	1641	14.178603901878	2
0	1650	14.207226979449	1
0	1659	14.414117467475	1
0	1667	14.525363200336	1
0	1672	14.540441495997	1
0	1679	14.622486374893	1
0	1684	14.66099021787	1
0	1690	14.721841192637	1
0	1695	14.751544867553	1
0	1697	14.756825499734	2
0	1702	14.762069591514	2
0	1715	14.888033698018	1
0	1720	14.909750980815	1
0	1725	14.972381357061	1
0	1731	15.004054487947	1
0	1741	15.342324013944	1
0	1747	15.434310653198	1
0	1752	15.442404157534	1
0	1759	15.559913022022	1
0	1766	15.661208462877	1
0	1768	15.663122608521	2
0	1773	15.671988887278	2
0	1782	15.707484783639	1
0	1787	15.755283104835	1
0	1792	15.764410034929	1
0	1794	15.77101922041	2
0	1803	15.84651039319	1
0	1808	15.940706837519	1
0	1814	16.040806162295	1
0	1823	16.123142117361	1
0	1829	16.149642261268	1
0	1835	16.191736309355	1
0	1840	16.199275859865	1
0	1846	16.225419361369	1
0	1848	16.227108700647	2
0	1850	16.230692469863	3
0	1862	16.433184811803	1
0	1868	16.492956740117	1
0	1873	16.516320368437	1
0	1878	16.546535322029	1
0	1883	16.573778178436	1
0	1888	16.637794888627	1
0	1890	16.640390516236	2
0	1898	16.741029153046	1
0	1903	16.763774745286	1
0	1909	16.949272774881	1
0	1911	16.950111163181	2
0	1919	17.046940025056	1
0	1921	17.060056490514	2
0	1923	17.06064565211	3
0	1935	17.133035356209	1
0	1941	17.155347997235	1
0	1949	17.29957858484	1
0	1955	17.365043503041	1
0	1961	17.434358070642	1
0	1963	17.443772819403	2
0	1971	17.464503446536	1
0	1976	17.501310001535	1
0	1981	17.534933027377	1
0	1983	17.537726530021	2
0	1988	17.558425476155	2
0	1993	17.56958243656	2
0	1998	17.579473911933	2
0	2000	17.580408685454	3
0	2002	17.589784633014	4
0	2017	17.668705269119	1
0	2022	17.699835136318	1
0	2024	17.712510421575	2
0	2034	17.816311974597	1
0	2039	17.837494829665	1
0	2050	17.981722044085	1
0	2057	18.113332987212	1
0	2064	18.160189923098	1
0	2070	18.221129763265	1
0	2076	18.266527964631	1
0	2078	18.268145804863	2
0	2086	18.344687366176	1
0	2088	18.353685233254	2
0	2097	18.388345221731	1
0	2104	18.436919329636	1
0	2106	18.439503474926	2
0	2114	18.48254965676	1
0	2119	18.542598202087	1
0	2124	18.556181605604	1
0	2130	18.800138250004	1
0	2136	18.9362056628	1
0	2141	18.951754053048	1
0	2146	18.999345538425	1
0	2152	19.056175363188	1
0	2157	19.094529345917	1
0	2165	19.194387944291	1
0	2171	19.238956873137	1
0	2178	19.308440726326	1
0	2184	19.373929994894	1
0	2192	19.540826711587	1
0	2197	19.559521036382	1
0	2202	19.599920039052	1
0	2207	19.625313295186	1
0	2212	19.637250938828	1
0	2217	19.649027167499	1
0	2222	19.661607098155	1
0	2224	19.671908700579	2
0	2232	19.684251664019	1
0	2240	19.828705443614	1
0	2245	19.870854382385	1
0	2251	19.938121754047	1
0	2258	19.968205703373	1
0	2263	20.001917931855	1
0	2273	20.177641865882	1
0	2279	20.190542504079	1
0	2285	20.247599399222	1
0	2290	20.262274781818	1
0	2292	20.266732496318	2
0	2294	20.269721544464	3
0	2299	20.27262516257	3
0	2312	20.301120040835	1
0	2318	20.334575727019	1
0	2323	20.353259216739	1
0	2329	20.459692721466	1
0	2336	20.519285626649	1
0	2347	20.70662035734	1
0	2352	20.730341171857	1
0	2357	20.778413150436	1
0	2362	20.788311537203	1
0	2368	20.827410323247	1
0	2370	20.828659740913	2
0	2379	20.925077747757	1
0	2381	20.928558631311	2
0	2389	20.996655217526	1
0	2395	21.053532142803	1
0	2402	21.086093679399	1
0	2408	21.116322740316	1
0	2413	21.172840517612	1
0	2418	21.211296507667	1
0	2423	21.257999524297	1
0	2428	21.371491525086	1
0	2434	21.434201688591	1
0	2443	21.66618431491	1
0	2448	21.69788081588	1
0	2453	21.710105366982	1
0	2458	21.740547012669	1
0	2465	21.79494223435	1
0	2472	21.913388142892	1
0	2477	21.928668387983	1
0	2479	21.936048189628	2
0	2484	21.937091550559	2
0	2489	21.950109121136	2
0	2498	22.021128293915	1
0	2505	22.127806458289	1
0	2510	22.147090842991	1
0	2517	22.264483031062	1
0	2523	22.288664950436	1
0	2528	22.34055745421	1
0	2533	22.384932550634	1
0	2538	22.404561202043	1
0	2543	22.493468368885	1
0	2548	22.530136752543	1
0	2554	22.579711967188	1
0	2556	22.579714734783	2
0	2565	22.682755796827	1
0	2571	22.701443961518	1
0	2577	22.717422694262	1
0	2583	22.745131235714	1
0	2590	22.825117207806	1
0	2596	22.93340539185	1
0	2598	22.943672780287	2
0	2606	23.000625662821	1
0	2615	23.153284896301	1
0	2622	23.183737126936	1
0	2627	23.241892791107	1
0	2633	23.274917945094	1
0	2635	23.287053869778	2
0	2647	23.364787016668	1
0	2654	23.512011030539	1
0	2659	23.525043037008	1
0	2665	23.590668436656	1
0	2671	23.696805769353	1
0	2677	23.711453342277	1
0	2684	23.730274809853	1
0	2686	23.742270985825	2
0	2696	23.900125762896	1
0	2702	23.936637146158	1
0	2707	23.968546576438	1
0	2709	23.969846463698	2
0	2719	24.032014002595	1
0	2721	24.043640253514	2
0	2726	24.051983985576	2
0	2735	24.079625904109	1
0	2742	24.145174522517	1
0	2747	24.168608346316	1
0	2753	24.220568628145	1
0	2758	24.251710093633	1
0	2764	24.263806075872	1
0	2769	24.280066876771	1
0	2771	24.290384776451	2
0	2779	24.334574059253	1
0	2787	24.416977867911	1
0	2793	24.516679827975	1
0	2799	24.585413825665	1
0	2801	24.591665455161	2
0	2810	24.647838480138	1
0	2816	24.684264672275	1
0	2823	24.700474627949	1
0	2825	24.707556729689	2
0	2830	24.717169801731	2
0	2839	24.780260435405	1
0	2844	24.841210402664	1
0	2849	24.866424399327	1
0	2854	24.897526245281	1
0	2862	24.939195157313	1
0	2868	25.03095832746	1
0	2870	25.041081265645	2
0	2878	25.052543481905	1
0	2880	25.060367270424	2
0	2885	25.069380985403	2
0	2893	25.102858014946	1
0	2895	25.10952504611	2
0	2904	25.131497815635	1
0	2910	25.195519033334	1
0	2916	25.336550830755	1
0	2918	25.338097145333	2
0	2926	25.410574884154	1
0	2932	25.479292034875	1
0	2937	25.548340189658	1
0	2939	25.553198573576	2
0	2948	25.670223171609	1
0	2954	25.682483076241	1
0	2956	25.686838505404	2
0	2965	25.756004328712	1
0	2972	25.796173916845	1
0	2979	25.86195522976	1
0	2985	25.905865983696	1
0	2987	25.908200370878	2
0	2997	26.071625190919	1
0	3002	26.083357983382	1
0	3007	26.100633962567	1
0	3012	26.117541698309	1
0	3017	26.131318095161	1
0	3022	26.18786401912	1
0	3024	26.193148377825	2
0	3026	26.196404021064	3
0	3028	26.197232325785	4
0	3042	26.237789376896	1
0	3047	26.370417302672	1
0	3049	26.370881453891	2
0	3058	26.426301941602	1
0	3063	26.515801421826	1
0	3072	26.59269285755	1
0	3078	26.800491412328	1
0	3083	26.817036906387	1
0	3090	26.877821430055	1
0	3095	26.921965457303	1
0	3100	26.931987567057	1
0	3102	26.935292167592	2
0	3110	26.971204491597	1
0	3115	27.004444879075	1
0	3120	27.047873165648	1
0	3131	27.237574354802	1
0	3136	27.31502493876	1
0	3144	27.419602767391	1
0	3149	27.466233360154	1
0	3154	27.48686985349	1
0	3159	27.499190644601	1
0	3165	27.66213669346	1
0	3171	27.692500657891	1
0	3177	27.705679513533	1
0	3183	27.811223952252	1
0	3193	27.960333986026	1
0	3198	27.994224086129	1
0	3203	28.136056095798	1
0	3210	28.198917945577	1
0	3218	28.27919088373	1
0	3223	28.312483008062	1
0	3229	28.36225619023	1
0	3235	28.423900213382	1
0	3242	28.527588286537	1
0	3247	28.562060013429	1
0	3252	28.579397678618	1
0	3259	28.672469260767	1
0	3265	28.766974345672	1
0	3270	28.777779156502	1
0	3275	28.825879752832	1
0	3280	28.900091876965	1
0	3282	28.900758139206	2
0	3293	29.083741005744	1
0	3298	29.105067796346	1
0	3305	29.204205241576	1
0	3307	29.2122219463	2
0	3317	29.288025392791	1
0	3322	29.488422875535	1
0	3329	29.698515846847	1
0	3334	29.731055713965	1
0	3341	29.801089498813	1
0	3347	29.835486672736	1
0	3349	29.835689488802	2
0	3357	29.8866988432	1
0	3362	29.902398738103	1
0	3367	29.925388303992	1
0	3372	29.951811665407	1
0	3374	29.959172917273	2
0	3382	29.987123300773	1
0	3388	30.07345496976	1
0	3393	30.091134798523	1
0	3398	30.101661462933	1
0	3403	30.127297195064	1
0	3408	30.163099460964	1
0	3410	30.169528472828	2
0	3415	30.182229041746	2
0	3424	30.379610705124	1
0	3426	30.38475912331	2
0	3434	30.410813064364	1
0	3439	30.509907581419	1
0	3444	30.552014396561	1
0	3455	30.73246144681	1
0	3461	30.753511111712	1
0	3468	30.915509260057	1
0	3475	30.993273978075	1
0	3481	31.111793357106	1
0	3486	31.13829143607	1
0	3492	31.212662923787	1
0	3498	31.234920390757	1
0	3503	31.255179534874	1
0	3509	31.280679076566	1
0	3512	31.284908051154	2
0	3519	31.30287274641	2
0	3527	31.329021129093	1
0	3532	31.403652737303	1
0	3537	31.41686626051	1
0	3545	31.547194850626	1
0	3547	31.554301126196	2
0	3555	31.573976246752	1
0	3557	31.57672161538	2
0	3566	31.72946460433	1
0	3572	31.79412199727	1
0	3574	31.794824326832	2
0	3576	31.795398989342	3
0	3588	31.833520173553	1
0	3595	31.907130381453	1
0	3600	31.925292492398	1
0	3602	31.933239151381	2
0	3613	32.040458424607	1
0	3615	32.044601538253	2
0	3623	32.05902717377	1
0	3625	32.063720901134	2
0	3635	32.120289839514	1
0	3640	32.176034210609	1
0	3645	32.259182499643	1
0	3650	32.273258700767	1
0	3655	32.301553427849	1
0	3660	32.328836313587	1
0	3665	32.39857976815	1
0	3671	32.439330684695	1
0	3677	32.527811675855	1
0	3682	32.626314554135	1
0	3687	32.650138483265	1
0	3694	32.715060765045	1
0	3696	32.720137469242	2
0	3704	32.735895470678	1
0	3709	32.75069056434	1
0	3711	32.757738958561	2
0	3721	32.802555418812	1
0	3723	32.805403745435	2
0	3731	32.837762480637	1
0	3737	32.855710546556	1
0	3743	32.889175690155	1
0	3748	32.904374268116	1
0	3753	32.935046222596	1
0	3758	32.965499445362	1
0	3764	33.002678604951	1
0	3770	33.060165674338	1
0	3778	33.08933686289	1
0	3784	33.148811675457	1
0	3789	33.244553788339	1
0	3795	33.261223955258	1
0	3800	33.289632479445	1
0	3805	33.313528378821	1
0	3811	33.401214111072	1
0	3813	33.411206887968	2
0	3821	33.446807291249	1
0	3827	33.524494566351	1
0	3829	33.529011428555	2
0	3831	33.531937823502	3
0	3843	33.585884168927	1
0	3848	33.645584837457	1
0	3850	33.657155886055	2
0	3862	33.732566647636	1
0	3870	33.826522569347	1
0	3879	33.901643209033	1
0	3884	33.958827740062	1
0	3889	33.973843994076	1
0	3891	33.983667088371	2
0	3899	34.007072411033	1
0	3901	34.010693366539	2
0	3909	34.05498139884	1
0	3911	34.055468169307	2
0	3917	34.071397361701	2
0	3925	34.182701561173	1
0	3930	34.20587106255	1
0	3932	34.213033713619	2
0	3939	34.224007121664	2
0	3948	34.299530201725	1
0	3954	34.330326165914	1
0	3962	34.459948596353	1
0	3964	34.462230498828	2
0	3973	34.525025173045	1
0	3979	34.605446065499	1
0	3984	34.639193614182	1
0	3986	34.643197556979	2
0	3994	34.674894163304	1
0	3999	34.711471430261	1
0	4005	34.818626415282	1
0	4010	34.836948979874	1
0	4015	34.870460573703	1
0	4020	34.913543948293	1
0	4026	34.940314165848	1
0	4036	35.100554607329	1
0	4041	35.110119409624	1
0	4048	35.161981664329	1
0	4053	35.194227088887	1
0	4055	35.196027230374	2
0	4064	35.272569651321	1
0	4070	35.300710911412	1
0	4077	35.341355829471	1
0	4082	35.377025043611	1
0	4087	35.38573480163	1
0	4092	35.424147468723	1
0	4097	35.431911747998	1
0	4104	35.489101516954	1
0	4109	35.541515972202	1
0	4115	35.557774515726	1
0	4121	35.596516634701	1
0	4123	35.603414296297	2
0	4131	35.623117174894	1
0	4137	35.648051791538	1
0	4139	35.656002392378	2
0	4151	35.812643866855	1
0	4158	35.821353802684	1
0	4164	35.831713061797	1
0	4166	35.838642402868	2
0	4176	35.955804399373	1
0	4181	35.999051304844	1
0	4186	36.038293155824	1
0	4188	36.043133029439	2
0	4196	36.073657171689	1
0	4204	36.194357993214	1
0	4209	36.301229077735	1
0	4211	36.305559927457	2
0	4219	36.336240137944	1
0	4224	36.4168067379	1
0	4230	36.481204836654	1
0	4235	36.58603665033	1
0	4240	36.611496774673	1
0	4242	36.616402750804	2
0	4251	36.733596232844	1
0	4258	36.761379178502	1
0	4264	36.819942363249	1
0	4270	36.851991040512	1
0	4276	36.912126729703	1
0	4281	36.955525228804	1
0	4287	36.975379276305	1
0	4294	37.038361334836	1
0	4299	37.109050501313	1
0	4301	37.110422606335	2
0	4310	37.16096106449	1
0	4316	37.226687169394	1
0	4322	37.240410345494	1
0	4328	37.313238356073	1
0	4331	37.321988108484	2
0	4333	37.322478830304	3
0	4344	37.402056636444	1
0	4349	37.420485783425	1
0	4357	37.580398532264	1
0	4362	37.593653187334	1
0	4367	37.624290459577	1
0	4372	37.659291741383	1
0	4378	37.703991811517	1
0	4384	37.857645572656	1
0	4392	37.955144418248	1
0	4397	37.995945346446	1
0	4403	38.02649822451	1
0	4405	38.03162581916	2
0	4414	38.18332294778	1
0	4420	38.231923492333	1
0	4426	38.274795247464	1
0	4432	38.374192220206	1
0	4439	38.460145685795	1
0	4441	38.468722617164	2
0	4449	38.588481606633	1
0	4456	38.83265655615	1
0	4461	38.917168303888	1
0	4463	38.921609923021	2
0	4468	38.930292751181	2
0	4470	38.935253827505	3
0	4481	38.984817802793	1
0	4488	39.035020361487	1
0	4494	39.06043133419	1
0	4500	39.209520317056	1
0	4503	39.212758601695	2
0	4514	39.350788824479	1
0	4519	39.378374005109	1
0	4525	39.408028084975	1
0	4530	39.422994504096	1
0	4536	39.488036375469	1
0	4542	39.582572833191	1
0	4549	39.650358758884	1
0	4551	39.652052351646	2
0	4559	39.670387609336	1
0	4566	39.83007570297	1
0	4568	39.83645438166	2
0	4576	39.858408230939	1
0	4582	39.887746671273	1
0	4588	39.909804411809	1
0	4593	39.934664876126	1
0	4595	39.935488040325	2
0	4603	39.973436279037	1
0	4608	39.983678892394	1
0	4613	40.077010915903	1
0	4618	40.102657265494	1
0	4623	40.141080394364	1
0	4632	40.273539807476	1
0	4637	40.330553751322	1
0	4639	40.335800388688	2
0	4648	40.382775487981	1
0	4656	40.528071468164	1
0	4658	40.533255009996	2
0	4670	40.63506971936	1
0	4672	40.639896783311	2
0	4680	40.670168472393	1
0	4682	40.673048118234	2
0	4690	40.692826398254	1
0	4692	40.697351771761	2
0	4697	40.710598518643	2
0	4705	40.72413473818	1
0	4710	40.771790865093	1
0	4716	40.863267972886	1
0	4718	40.864949668932	2
0	4727	40.901895669929	1
0	4729	40.902682126118	2
0	4739	40.938664371002	1
0	4744	40.966664789669	1
0	4749	41.019131897965	1
0	4751	41.022656995383	2
0	4759	41.061984949978	1
0	4764	41.076498620734	1
0	4766	41.078148819987	2
0	4771	41.090646360819	2
0	4781	41.134039454313	1
0	4786	41.148636757899	1
0	4792	41.222357869138	1
0	4794	41.229381654986	2
0	4803	41.252980059375	1
0	4805	41.253585521628	2
0	4813	41.287353315137	1
0	4815	41.293489065503	2
0	4825	41.493367239339	1
0	4831	41.541546874153	1
0	4836	41.555575670462	1
0	4845	41.738553776385	1
0	4850	41.761999842749	1
0	4862	41.994013842546	1
0	4864	41.996350587633	2
0	4872	42.022652127421	1
0	4877	42.041210213461	1
0	4882	42.050104051354	1
0	4887	42.139150785099	1
0	4893	42.190061664039	1
0	4899	42.272320835393	1
0	4905	42.306018007604	1
0	4910	42.357103924974	1
0	4920	42.584495117567	1
0	4925	42.607446513941	1
0	4927	42.610823221785	2
0	4935	42.629576318941	1
0	4942	42.706023262477	1
0	4950	42.786956315798	1
0	4955	42.803968176779	1
0	4957	42.807620759637	2
0	4962	42.821436019283	2
0	4970	42.878969148929	1
0	4975	42.933279314487	1
0	4982	42.957239949211	1
0	4989	42.971362284809	1
0	4994	43.021608950262	1
0	4999	43.076418578312	1
0	5005	43.207200624933	1
0	5011	43.243619503585	1
0	5017	43.339806432118	1
0	5023	43.3673965382	1
0	5029	43.401822232602	1
0	5035	43.442271217359	1
0	5040	43.470187556822	1
0	5045	43.487104862757	1
0	5051	43.573560844641	1
0	5056	43.634867455253	1
0	5063	43.701881253352	1
0	5070	43.728676193119	1
0	5077	43.758309064016	1
0	5082	43.780666059146	1
0	5090	43.954198313173	1
0	5100	44.042402682782	1
0	5105	44.064964622707	1
0	5111	44.194455929982	1
0	5116	44.219792090677	1
0	5118	44.22214705423	2
0	5128	44.289248041289	1
0	5133	44.302487154956	1
0	5138	44.332295749526	1
0	5143	44.353721129735	1
0	5150	44.492178353877	1
0	5158	44.576539268315	1
0	5163	44.59140794471	1
0	5172	44.803058734527	1
0	5177	44.827102645742	1
0	5185	45.000745431037	1
0	5190	45.060469928212	1
0	5195	45.178136666616	1
0	5200	45.29182202495	1
0	5205	45.309410394221	1
0	5207	45.31586231938	2
0	5218	45.557348331778	1
0	5223	45.571171967605	1
0	5228	45.585517422374	1
0	5233	45.598473035168	1
0	5235	45.604070262225	2
0	5243	45.637689407327	1
0	5252	45.788437820936	1
0	5259	45.899498530096	1
0	5264	45.912789357547	1
0	5269	45.934956077347	1
0	5274	45.993477863848	1
0	5279	46.017803820836	1
0	5281	46.020810239293	2
0	5290	46.14509179351	1
0	5295	46.210689947564	1
0	5297	46.216731517377	2
0	5308	46.323466637104	1
0	5314	46.373331583312	1
0	5319	46.389234310572	1
0	5321	46.396359457855	2
0	5329	46.420185248904	1
0	5335	46.443625033486	1
0	5341	46.467068941267	1
0	5346	46.486677005748	1
0	5352	46.55574995974	1
0	5357	46.612739730073	1
0	5362	46.626317519657	1
0	5370	46.705685381142	1
0	5372	46.715113617355	2
0	5380	46.750165892821	1
0	5385	46.779993388665	1
0	5390	46.797559452742	1
0	5395	46.815713394751	1
0	5402	46.924274688819	1
0	5408	47.01565100221	1
0	5413	47.037334244979	1
0	5419	47.0509077433	1
0	5424	47.11795282953	1
0	5431	47.152849706972	1
0	5436	47.193374364331	1
0	5444	47.336245631722	1
0	5449	47.347497756415	1
0	5454	47.397753538844	1
0	5459	47.437514648909	1
0	5464	47.53849387407	1
0	5470	47.575155141004	1
0	5478	47.716000727502	1
0	5484	47.737446319291	1
0	5489	47.806914244638	1
0	5491	47.808160649424	2
0	5499	47.868288516659	1
0	5501	47.8763456456	2
0	5513	48.048392847979	1
0	5516	48.055462503616	2
0	5529	48.314718974768	1
0	5534	48.37625491732	1
0	5540	48.406312649639	1
0	5545	48.468046643442	1
0	5547	48.471721962313	2
0	5556	48.519027049376	1
0	5561	48.536348715751	1
0	5567	48.592071627337	1
0	5569	48.600336277953	2
0	5577	48.630002806366	1
0	5582	48.657022941246	1
0	5587	48.716572013916	1
0	5590	48.723609271687	2
0	5598	48.747376255169	1
0	5603	48.793708185184	1
0	5605	48.79897799168	2
0	5613	48.823106752438	1
0	5619	48.984372556624	1
0	5626	49.097246396162	1
0	5628	49.10100598662	2
0	5636	49.272787156244	1
0	5638	49.273761620892	2
0	5646	49.313342075622	1
0	5653	49.507887580142	1
0	5658	49.523954595285	1
0	5660	49.531991097313	2
0	5668	49.576843748018	1
0	5673	49.591811398165	1
0	5679	49.705346903535	1
0	5681	49.717484175403	2
0	5689	49.743589740624	1
0	5694	49.786954341566	1
0	5699	49.827111180162	1
0	5705	50.013081595707	1
0	5711	50.028930464701	1
0	5716	50.044872517122	1
0	5721	50.075261755328	1
0	5727	50.250714932878	1
0	5732	50.276399213541	1
0	5734	50.277690615762	2
0	5739	50.291969061787	2
0	5748	50.401451397515	1
0	5753	50.436698863584	1
0	5759	50.498353299945	1
0	5765	50.516934087686	1
0	5770	50.533204923544	1
0	5775	50.556548140722	1
0	5780	50.669172784226	1
0	5785	50.706391697296	1
0	5787	50.707735728272	2
0	5795	50.777169591965	1
0	5800	50.826296009101	1
0	5805	50.846582326294	1
0	5811	50.866572089918	1
0	5818	50.995527746457	1
0	5827	51.166273991579	1
0	5834	51.265414620593	1
0	5836	51.274645414238	2
0	5838	51.277141194359	3
0	5850	51.393017497487	1
0	5856	51.407645027547	1
0	5863	51.42766410412	1
0	5870	51.45720586514	1
0	5876	51.567222331162	1
0	5878	51.572748124992	2
0	5887	51.608666416753	1
0	5894	51.630088468193	1
0	5899	51.665820177562	1
0	5905	51.733192618747	1
0	5910	51.757648039278	1
0	5915	51.814700205991	1
0	5920	51.852460796879	1
0	5926	51.901154726453	1
0	5934	52.045910607304	1
0	5942	52.107895511335	1
0	5950	52.21957750389	1
0	5952	52.231043362472	2
0	5961	52.287566222388	1
0	5967	52.308470805335	1
0	5974	52.359418464389	1
0	5979	52.415806486068	1
0	5985	52.455550127871	1
0	5992	52.561245468603	1
0	5997	52.577165119406	1
0	6004	52.616392954252	1
0	6006	52.62441715962	2
0	6014	52.641030190799	1
0	6023	52.738032601293	1
0	6025	52.739567689944	2
0	6033	52.789968366968	1
0	6038	52.851920192337	1
0	6045	52.869728481415	1
0	6047	52.87012424874	2
0	6055	52.900953903166	1
0	6060	52.924268754488	1
0	6062	52.925510414875	2
0	6071	52.963318727265	1
0	6076	53.004148361707	1
0	6084	53.131772186384	1
0	6089	53.154176584803	1
0	6091	53.158864354183	2
0	6099	53.193793404487	1
0	6104	53.219832347731	1
0	6106	53.228172135637	2
0	6108	53.229402817841	3
0	6119	53.257116241512	1
0	6124	53.278090207685	1
0	6131	53.396404720877	1
0	6138	53.445078348059	1
0	6140	53.445505748991	2
0	6145	53.461866268057	2
0	6155	53.635335959996	1
0	6160	53.647106253321	1
0	6165	53.705809760161	1
0	6167	53.711957888505	2
0	6172	53.717193502176	2
0	6182	53.760229237552	1
0	6187	53.777337972133	1
0	6192	53.836754430147	1
0	6200	53.875480269544	1
0	6206	53.931210819694	1
0	6214	53.99560533165	1
0	6220	54.144265748624	1
0	6225	54.168887817443	1
0	6227	54.169023161172	2
0	6232	54.181902404489	2
0	6241	54.23399462773	1
0	6246	54.264330248192	1
0	6251	54.310193838038	1
0	6262	54.48911892433	1
0	6267	54.533545359946	1
0	6276	54.623279015646	1
0	6282	54.787811457159	1
0	6292	54.910943670629	1
0	6294	54.911794451815	2
0	6302	54.966817878339	1
0	6310	55.02643366705	1
0	6316	55.055484099823	1
0	6321	55.139498219827	1
0	6327	55.197271956264	1
0	6334	55.23291978022	1
0	6341	55.285211044859	1
0	6347	55.305531688196	1
0	6349	55.307008278754	2
0	6359	55.385241106289	1
0	6368	55.511235540981	1
0	6370	55.516350630031	2
0	6380	55.555444851186	1
0	6385	55.584617859801	1
0	6396	55.820937619644	1
0	6401	55.857631117995	1
0	6406	55.881783769208	1
0	6413	55.940985156025	1
0	6419	56.023152817785	1
0	6421	56.027917041929	2
0	6430	56.058819660786	1
0	6437	56.071742623222	1
0	6444	56.159415029136	1
0	6449	56.185822228672	1
0	6455	56.22455291549	1
0	6461	56.273367516638	1
0	6469	56.382503211102	1
0	6475	56.49150423346	1
0	6483	56.597561956302	1
0	6490	56.64578694439	1
0	6495	56.665684364122	1
0	6497	56.672846799311	2
0	6505	56.698758191716	1
0	6516	56.895831125947	1
0	6521	56.93516528172	1
0	6528	57.037867905913	1
0	6533	57.086470354337	1
0	6538	57.121400532684	1
0	6543	57.145250420231	1
0	6551	57.273026306064	1
0	6558	57.312084745563	1
0	6564	57.351061497005	1
0	6566	57.357505429307	2
0	6574	57.485902060742	1
0	6580	57.542982836918	1
0	6585	57.631550502884	1
0	6590	57.648472559525	1
0	6597	57.821023065993	1
0	6599	57.823219427699	2
0	6608	57.949370300767	1
0	6610	57.955540774342	2
0	6612	57.957375727856	3
0	6617	57.963002225175	3
0	6622	57.972607003982	3
0	6630	57.99163255141	2
0	6640	58.016276489828	1
0	6645	58.03043011162	1
0	6651	58.182406691127	1
0	6657	58.223772987307	1
0	6662	58.241608799941	1
0	6668	58.360020602591	1
0	6670	58.368766115596	2
0	6678	58.412153872743	1
0	6685	58.5208655181	1
0	6690	58.566422808504	1
0	6695	58.595987947782	1
0	6700	58.609581239711	1
0	6706	58.728812006873	1
0	6714	58.772292774915	1
0	6716	58.781024164739	2
0	6721	58.78890776738	2
0	6731	58.843012861604	1
0	6736	58.863458738066	1
0	6741	58.892473217465	1
0	6747	58.941585126685	1
0	6749	58.94556363444	2
0	6757	58.967980099771	1
0	6763	59.027592711875	1
0	6770	59.148545281583	1
0	6775	59.162756268759	1
0	6784	59.268145286679	1
0	6786	59.270166365562	2
0	6794	59.298638171256	1
0	6796	59.301728978688	2
0	6804	59.338179314757	1
0	6806	59.34133048697	2
0	6814	59.373516727263	1
0	6822	59.492670140923	1
0	6824	59.502859410033	2
0	6832	59.57019077446	1
0	6837	59.598716073864	1
0	6844	59.712885775585	1
0	6846	59.723270939896	2
0	6855	59.779096868574	1
0	6861	59.841896648513	1
0	6867	59.879535131115	1
0	6873	59.916547740686	1
0	6878	59.934700098406	1
0	6883	59.954024807508	1
0	6889	60.263820313444	1
0	6891	60.263975531284	2
0	6896	60.286461199681	2
0	6904	60.331939734925	1
0	6909	60.363744907643	1
0	6916	60.416104520418	1
0	6921	60.439864992357	1
0	6923	60.440125148997	2
0	6934	60.634557385135	1
0	6941	60.810256326283	1
0	6943	60.819854221381	2
0	6952	60.874366500704	1
0	6957	60.8942404547	1
0	6962	60.911586898858	1
0	6968	60.968613122606	1
0	6970	60.979793075523	2
0	6975	60.983057755305	2
0	6985	61.113041417572	1
0	6990	61.159770438389	1
0	6995	61.178269397377	1
0	7001	61.210739933717	1
0	7007	61.236550106464	1
0	7012	61.253253860617	1
0	7020	61.303381981033	1
0	7025	61.316999542351	1
0	7031	61.427660903928	1
0	7036	61.463791015805	1
0	7041	61.492126113797	1
0	7047	61.515063678929	1
0	7057	61.646770248726	1
0	7062	61.677258357369	1
0	7068	61.722092649198	1
0	7073	61.742677678092	1
0	7078	61.770940442158	1
0	7087	61.947098009219	1
0	7092	61.992018127541	1
0	7094	61.999179291115	2
0	7103	62.021066263921	1
0	7105	62.02615704602	2
0	7115	62.079661170501	1
0	7120	62.100694554121	1
0	7125	62.15351660383	1
0	7131	62.198221898236	1
0	7137	62.284441492509	1
0	7143	62.33826101548	1
0	7149	62.36403339298	1
0	7155	62.389346591334	1
0	7157	62.391261031223	2
0	7169	62.752934453863	1
0	7178	62.961706634074	1
0	7183	62.983391607594	1
0	7189	63.013114908429	1
0	7194	63.077015014887	1
0	7200	63.215752745966	1
0	7205	63.266500693884	1
0	7211	63.322244036588	1
0	7216	63.406090773238	1
0	7221	63.421600579401	1
0	7228	63.608558003303	1
0	7233	63.650071035641	1
0	7240	63.760341075831	1
0	7246	63.917590953466	1
0	7254	63.989906332074	1
0	7256	63.995929245462	2
0	7264	64.055836814854	1
0	7269	64.071725281923	1
0	7274	64.092161164635	1
0	7276	64.096442204341	2
0	7281	64.104432193363	2
0	7294	64.176898286837	1
0	7296	64.180132467094	2
0	7298	64.181228836128	3
0	7303	64.195075947394	3
0	7309	64.202457541556	3
0	7318	64.230764019141	2
0	7323	64.245861769315	2
0	7331	64.282768606442	1
0	7338	64.385197764272	1
0	7345	64.459356434674	1
0	7347	64.469243023071	2
0	7357	64.628637231685	1
0	7362	64.657031616341	1
0	7364	64.663271270954	2
0	7372	64.682932135304	1
0	7374	64.688590801924	2
0	7383	64.732372741829	1
0	7388	64.776915431924	1
0	7397	64.914726085798	1
0	7403	64.983128786867	1
0	7409	65.124454985395	1
0	7416	65.218698216105	1
0	7418	65.221395063926	2
0	7429	65.358707657437	1
0	7435	65.404050812802	1
0	7445	65.609047527435	1
0	7453	65.720236668223	1
0	7458	65.745761426358	1
0	7463	65.821679883778	1
0	7469	65.845608712331	1
0	7471	65.857492005886	2
0	7476	65.865489216554	2
0	7484	65.937896522751	1
0	7489	65.995645249429	1
0	7491	66.006123473715	2
0	7499	66.059590026633	1
0	7504	66.174102887628	1
0	7509	66.273150652434	1
0	7511	66.273599221801	2
0	7513	66.27871514578	3
0	7516	66.283443482605	4
0	7527	66.317879024803	2
0	7537	66.366150814788	1
0	7542	66.409654810306	1
0	7547	66.433753770784	1
0	7552	66.447578154989	1
0	7554	66.452655593518	2
0	7559	66.461913396192	2
0	7568	66.671676827198	1
0	7574	66.769832991676	1
0	7581	66.883281446007	1
0	7583	66.886297347196	2
0	7588	66.902109202488	2
0	7597	66.933911726044	1
0	7602	66.965957497204	1
0	7604	66.97211301995	2
0	7613	67.004785682936	1
0	7621	67.035323391679	1
0	7627	67.070826908962	1
0	7636	67.266333947445	1
0	7643	67.437290772579	1
0	7648	67.464847669995	1
0	7650	67.470113390955	2
0	7658	67.567402620151	1
0	7660	67.569425517934	2
0	7663	67.575664894052	3
0	7675	67.608718884093	1
0	7680	67.624540253652	1
0	7686	67.655188617086	1
0	7691	67.68104696344	1
0	7693	67.694458118104	2
0	7701	67.719983746901	1
0	7703	67.72301746191	2
0	7712	67.778660652491	1
0	7714	67.785271232482	2
0	7722	67.806405721885	1
0	7730	67.903565749701	1